
  ___ ___ ___ _ _ _  
 |   |   |_  | | | | 
 | | | | | . | | | | 
 |__ |  _|___|_____|  25.7.0
 |___|_|             

User:   ubuntu@third-test
Date:   Tue Feb 17 15:30:37 2026
Arch:   x86_64
Pid:    2718679
CWD:    /mnt/vdd1/work/cemea/fairchem/src/fairchem/applications/ocx/mo_h_adsorption_workflow
Python: 3.10.16
gpaw:   /home/ubuntu/.pyenv/versions/cemea-env/lib/python3.10/site-packages/gpaw
_gpaw:  /home/ubuntu/.pyenv/versions/cemea-env/lib/python3.10/site-packages/
        _gpaw.cpython-310-x86_64-linux-gnu.so
ase:    /home/ubuntu/.pyenv/versions/cemea-env/lib/python3.10/site-packages/ase (version 3.27.0)
numpy:  /home/ubuntu/.pyenv/versions/cemea-env/lib/python3.10/site-packages/numpy (version 2.2.6)
scipy:  /home/ubuntu/.pyenv/versions/cemea-env/lib/python3.10/site-packages/scipy (version 1.15.3)
libxc:  2.x.y
units:  Angstrom and eV
cores: 1
OpenMP: False
OMP_NUM_THREADS: 1

Input parameters:
  basis: dzp
  convergence: {density: 0.0001,
                eigenstates: 1e-05,
                energy: 1e-05}
  kpts: [4 4 1]
  mode: lcao

System changes: positions, numbers, cell, pbc, initial_charges, initial_magmoms 

Initialize ...

species:
  Mo:
    name: Molybdenum
    id: ac24daaf086600a00ce6d19a74574df1
    Z: 42.0
    valence: 14
    core: 28
    charge: 0.0
    file: /home/ubuntu/.pyenv/versions/cemea-env/lib/python3.10/site-packages/gpaw_data/setups/Mo.LDA.gz
    compensation charges: {type: gauss,
                           rc: 0.38,
                           lmax: 2}
    cutoffs: {filter: 2.16,
              core: 1.42}
    projectors:
      #              energy  rcut
      - 4s(2.00)   -64.384   1.238
      - 5s(1.00)    -4.319   1.238
      - 4p(6.00)   -38.595   1.296
      - 5p(0.00)    -1.161   1.296
      - 4d(5.00)    -3.933   1.296
      -  d          23.278   1.296
  
    # LCAO basis set for Mo:
    #   Name: dzp
    #   File: /home/ubuntu/.pyenv/versions/cemea-env/lib/python3.10/site-packages/gpaw_data/setups/Mo.dzp.basis.gz
    #   Number of radial functions: 11
    #   Number of spherical harmonics: 29
    #     l=0, rc=3.5469 Bohr: 4s-sz confined orbital
    #     l=0, rc=10.0469 Bohr: 5s-sz confined orbital
    #     l=1, rc=4.0781 Bohr: 4p-sz confined orbital
    #     l=1, rc=14.0938 Bohr: 5p-sz confined orbital
    #     l=2, rc=7.2031 Bohr: 4d-sz confined orbital
    #     l=0, rc=2.1250 Bohr: 4s-dz split-valence wave
    #     l=0, rc=6.1250 Bohr: 5s-dz split-valence wave
    #     l=1, rc=2.5469 Bohr: 4p-dz split-valence wave
    #     l=1, rc=8.7656 Bohr: 5p-dz split-valence wave
    #     l=2, rc=4.2344 Bohr: 4d-dz split-valence wave
    #     l=1, rc=10.0469 Bohr: p-type Gaussian polarization
    #   Number of RI-basis functions 0

  N:
    name: Nitrogen
    id: c467cdfa1b75f62c8f7a0469921b1cfb
    Z: 7.0
    valence: 5
    core: 2
    charge: 0.0
    file: /home/ubuntu/.pyenv/versions/cemea-env/lib/python3.10/site-packages/gpaw_data/setups/N.LDA.gz
    compensation charges: {type: gauss,
                           rc: 0.18,
                           lmax: 2}
    cutoffs: {filter: 1.11,
              core: 0.96}
    projectors:
      #              energy  rcut
      - 2s(2.00)   -18.420   0.603
      - 2p(3.00)    -7.237   0.529
      -  s           8.791   0.603
      -  p          19.974   0.529
      -  d           0.000   0.577
  
    # LCAO basis set for N:
    #   Name: dzp
    #   File: /home/ubuntu/.pyenv/versions/cemea-env/lib/python3.10/site-packages/gpaw_data/setups/N.dzp.basis.gz
    #   Number of radial functions: 5
    #   Number of spherical harmonics: 13
    #     l=0, rc=4.8594 Bohr: 2s-sz confined orbital
    #     l=1, rc=6.0625 Bohr: 2p-sz confined orbital
    #     l=0, rc=2.6094 Bohr: 2s-dz split-valence wave
    #     l=1, rc=3.2656 Bohr: 2p-dz split-valence wave
    #     l=2, rc=6.0625 Bohr: d-type Gaussian polarization
    #   Number of RI-basis functions 0

  H:
    name: Hydrogen
    id: 4766778ce56282eaa64abeb28b7c1de3
    Z: 1.0
    valence: 1
    core: 0
    charge: 0.0
    file: /home/ubuntu/.pyenv/versions/cemea-env/lib/python3.10/site-packages/gpaw_data/setups/H.LDA.gz
    compensation charges: {type: gauss,
                           rc: 0.15,
                           lmax: 2}
    cutoffs: {filter: 0.85,
              core: 0.53}
    projectors:
      #              energy  rcut
      - 1s(1.00)    -6.353   0.476
      -  s          20.858   0.476
      -  p           0.000   0.476
  
    # LCAO basis set for H:
    #   Name: dzp
    #   File: /home/ubuntu/.pyenv/versions/cemea-env/lib/python3.10/site-packages/gpaw_data/setups/H.dzp.basis.gz
    #   Number of radial functions: 3
    #   Number of spherical harmonics: 5
    #     l=0, rc=6.4219 Bohr: 1s-sz confined orbital
    #     l=0, rc=3.6094 Bohr: 1s-dz split-valence wave
    #     l=1, rc=6.4219 Bohr: p-type Gaussian polarization
    #   Number of RI-basis functions 0

Reference energy: -776034.317996  # eV

Spin-paired calculation

Convergence criteria:
 Maximum [total energy] change in last 3 cyles: 1e-05 eV / valence electron
 Maximum integral of absolute [dens]ity change: 0.0001 electrons / valence electron
 Maximum integral of absolute [eigenst]ate change: 1e-05 eV^2 / valence electron
 Maximum number of scf [iter]ations: 333
 (Square brackets indicate name in SCF output, whereas a 'c' in
 the SCF output indicates the quantity has converged.)

Symmetries present (total): 2

  ( 1  0  0)  ( 0  1  0)
  ( 0  1  0)  ( 1  0  0)
  ( 0  0  1)  ( 0  0  1)

16 k-points: 4 x 4 x 1 Monkhorst-Pack grid
6 k-points in the irreducible part of the Brillouin zone
       k-points in crystal coordinates                weights
   0:     0.12500000   -0.12500000    0.00000000          2/16
   1:     0.12500000    0.12500000    0.00000000          2/16
   2:     0.37500000   -0.37500000    0.00000000          2/16
   3:     0.37500000   -0.12500000    0.00000000          4/16
   4:     0.37500000    0.12500000    0.00000000          4/16
   5:     0.37500000    0.37500000    0.00000000          2/16

Wave functions: LCAO
  Diagonalizer: Serial LAPACK
  Atomic Correction: dense with blas
  Data-type: complex
 

Occupation numbers: Fermi-Dirac:
  width: 0.1000  # eV
 

Eigensolver
   LCAO using direct dense diagonalizer 

Densities:
  Coarse grid: 40*40*92 grid
  Fine grid: 80*80*184 grid
  Total Charge: 0.000000 

Density mixing:
  Method: separate
  Backend: pulay
  Linear mixing parameter: 0.05
  old densities: 5
  Damping of long wavelength oscillations: 50 

Hamiltonian:
  XC and Coulomb potentials evaluated on a 80*80*184 grid
  Using the LDA Exchange-Correlation functional
  Interpolation: tri-quintic (5. degree polynomial)
  Poisson solver: FastPoissonSolver using
    Stencil: 6*3+1=19 point O(h^6) finite-difference Laplacian
    FFT axes: [np.int64(0), np.int64(1), np.int64(2)]
    FST axes: []
 

Memory estimate:
  Process memory now: 1340.54 MiB
  Calculator: 183.94 MiB
    Density: 75.68 MiB
      Arrays: 29.20 MiB
      Localized functions: 35.25 MiB
      Mixer: 11.23 MiB
    Hamiltonian: 21.39 MiB
      Arrays: 19.09 MiB
      XC: 0.00 MiB
      Poisson: 0.00 MiB
      vbar: 2.30 MiB
    Wavefunctions: 86.87 MiB
      C [qnM]: 1.81 MiB
      S, T [2 x qmm]: 12.38 MiB
      P [aqMi]: 0.27 MiB
      BasisFunctions: 72.41 MiB
      Eigensolver: 0.00 MiB

Total number of cores used: 1

Number of atoms: 12
Number of atomic orbitals: 260
Number of bands in calculation: 76
Number of valence electrons: 119
Bands to converge: occupied

... initialized

Initializing position-dependent things.

Density initialized from atomic densities
      .-------------------.  
     /|                   |  
    / |                   |  
   /  |                   |  
  /   |                   |  
 *    |                   |  
 |    |                   |  
 |    |                   |  
 |    |                   |  
 |    |                   |  
 |    |                   |  
 |    |   MoH       Mo    |  
 |    |                   |  
 |    |          Mo       |  
 |    |   N         N     |  
 |  Mo|       Mo          |  
 |    |N         N        |  
 Mo   |    Mo             |  
 |    |                   |  
 |    |                   |  
 |    |                   |  
 |    |                   |  
 |    .-------------------.  
 |   /                   /   
 |  /                   /    
 | /                   /     
 |/                   /      
 *-------------------*       

Atomic positions and initial magnetic moments

Positions:
   0 Mo     0.000000    0.000000    8.000000    ( 0.0000,  0.0000,  0.0000)
   1 N      2.080000    2.080000    8.000000    ( 0.0000,  0.0000,  0.0000)
   2 Mo     0.000000    4.160000    8.000000    ( 0.0000,  0.0000,  0.0000)
   3 Mo     2.080000    6.240000   10.080000    ( 0.0000,  0.0000,  0.0000)
   4 N      2.080000    6.240000    8.000000    ( 0.0000,  0.0000,  0.0000)
   5 Mo     4.160000    0.000000    8.000000    ( 0.0000,  0.0000,  0.0000)
   6 Mo     6.240000    2.080000   10.080000    ( 0.0000,  0.0000,  0.0000)
   7 N      6.240000    2.080000    8.000000    ( 0.0000,  0.0000,  0.0000)
   8 Mo     4.160000    4.160000    8.000000    ( 0.0000,  0.0000,  0.0000)
   9 Mo     6.240000    6.240000   10.080000    ( 0.0000,  0.0000,  0.0000)
  10 N      6.240000    6.240000    8.000000    ( 0.0000,  0.0000,  0.0000)
  11 H      3.592727    3.592727   11.580000    ( 0.0000,  0.0000,  0.0000)

Unit cell:
           periodic     x           y           z      points  spacing
  1. axis:    yes    8.320000    0.000000    0.000000    40     0.2080
  2. axis:    yes    0.000000    8.320000    0.000000    40     0.2080
  3. axis:    yes    0.000000    0.000000   18.080000    92     0.1965

  Lengths:   8.320000   8.320000  18.080000
  Angles:   90.000000  90.000000  90.000000

Effective grid spacing dv^(1/3) = 0.2041

     iter     time        total  log10-change:
                         energy   eigst   dens
iter:   1 15:31:44   -83.816337        c
iter:   2 15:32:52   -77.226221        c -0.85
iter:   3 15:34:01   -73.854674        c -0.95
iter:   4 15:35:08   -70.078881        c -0.97
iter:   5 15:36:23   -70.035653        c -1.16
iter:   6 15:37:30   -68.560650        c -1.16
iter:   7 15:38:43   -68.052696        c -1.26
iter:   8 15:39:56   -67.459466        c -1.33
iter:   9 15:41:07   -67.375542        c -1.49
iter:  10 15:42:12   -67.226243        c -1.48
iter:  11 15:43:24   -67.070810        c -1.58
iter:  12 15:44:33   -67.068130        c -1.83
iter:  13 15:45:39   -67.047352        c -1.91
iter:  14 15:46:57   -67.029665        c -1.94
iter:  15 15:48:04   -67.009188        c -2.03
iter:  16 15:49:04   -66.995203        c -2.06
iter:  17 15:50:08   -66.987788        c -2.22
iter:  18 15:51:18   -66.983783        c -2.31
iter:  19 15:52:17   -66.985273        c -2.39
iter:  20 15:53:18   -66.980446        c -2.29
iter:  21 15:54:34   -66.979601        c -2.57
iter:  22 15:55:49   -66.978573        c -2.63
iter:  23 15:57:00   -66.977857        c -2.74
iter:  24 15:58:10   -66.977212        c -2.81
iter:  25 15:59:20   -66.977038c       c -2.93
iter:  26 16:00:19   -66.976748c       c -3.05
iter:  27 16:01:25   -66.976707c       c -3.17
iter:  28 16:02:36   -66.976636c       c -3.26
iter:  29 16:03:49   -66.976549c       c -3.35
iter:  30 16:04:50   -66.976556c       c -3.35
iter:  31 16:05:59   -66.976501c       c -3.40
iter:  32 16:06:50   -66.976403c       c -3.50
iter:  33 16:08:05   -66.976349c       c -3.47
iter:  34 16:09:19   -66.976307c       c -3.63
iter:  35 16:10:24   -66.976227c       c -3.69
iter:  36 16:11:31   -66.976226c       c -3.74
iter:  37 16:12:35   -66.976200c       c -3.77
iter:  38 16:13:48   -66.976180c       c -3.94
iter:  39 16:14:54   -66.976167c       c -3.89
iter:  40 16:15:55   -66.976161c       c -4.03c

Converged after 40 iterations.

Dipole moment: (-4.976354, -4.976354, 0.168167) |e|*Ang

Energy contributions relative to reference atoms: (reference = -776034.317996)

Kinetic:       -179.463739
Potential:     +120.558409
External:        +0.000000
XC:              -9.343880
Entropy (-ST):   -1.394766
Local:           +1.970431
SIC:             +0.000000
--------------------------
Free energy:    -67.673544
Extrapolated:   -66.976161

Showing only first 2 kpts
 Kpt  Band  Eigenvalues  Occupancy
  0    57     -2.60255    1.25192
  0    58     -2.56630    1.07606
  0    59     -2.54974    0.99340
  0    60     -2.50844    0.79007

  1    57     -2.59202    1.20201
  1    58     -2.57258    1.10723
  1    59     -2.52590    0.87489
  1    60     -2.52124    0.85203


Fermi level: -2.55106

No gap
No difference between direct/indirect transitions
Timing:                              incl.     excl.
-----------------------------------------------------------
Basic WFS set positions:             0.001     0.001   0.0% |
Basis functions set positions:       0.093     0.093   0.0% |
LCAO WFS Initialize:                 0.455     0.112   0.0% |
 Hamiltonian:                        0.343     0.000   0.0% |
  Atomic:                            0.072     0.001   0.0% |
   XC Correction:                    0.071     0.071   0.0% |
  Calculate atomic Hamiltonians:     0.008     0.008   0.0% |
  Communicate:                       0.000     0.000   0.0% |
  Hartree integrate/restrict:        0.030     0.030   0.0% |
  Initialize Hamiltonian:            0.001     0.001   0.0% |
  Poisson:                           0.137     0.010   0.0% |
   Communicate from 1D:              0.019     0.019   0.0% |
   Communicate from 2D:              0.017     0.017   0.0% |
   Communicate to 1D:                0.023     0.023   0.0% |
   Communicate to 2D:                0.021     0.021   0.0% |
   FFT 1D:                           0.017     0.017   0.0% |
   FFT 2D:                           0.028     0.028   0.0% |
  XC 3D grid:                        0.061     0.061   0.0% |
  vbar:                              0.035     0.035   0.0% |
P tci:                               0.571     0.571   0.0% |
SCF-cycle:                        2714.889     0.062   0.0% |
 Density:                          297.313     0.001   0.0% |
  Atomic density matrices:           0.108     0.108   0.0% |
  Mix:                              13.189    13.189   0.5% |
  Multipole moments:                 0.009     0.009   0.0% |
  Normalize:                         0.004     0.004   0.0% |
  Pseudo density:                  284.001     0.025   0.0% |
   Calculate density matrix:         7.417     7.417   0.3% |
   Construct density:              276.407   276.407  10.2% |---|
   Symmetrize density:               0.152     0.152   0.0% |
 Hamiltonian:                       13.533     0.019   0.0% |
  Atomic:                            2.940     0.041   0.0% |
   XC Correction:                    2.899     2.899   0.1% |
  Calculate atomic Hamiltonians:     0.300     0.300   0.0% |
  Communicate:                       0.000     0.000   0.0% |
  Hartree integrate/restrict:        1.385     1.385   0.1% |
  Poisson:                           5.200     0.251   0.0% |
   Communicate from 1D:              0.792     0.792   0.0% |
   Communicate from 2D:              0.720     0.720   0.0% |
   Communicate to 1D:                0.638     0.638   0.0% |
   Communicate to 2D:                0.880     0.880   0.0% |
   FFT 1D:                           0.716     0.716   0.0% |
   FFT 2D:                           1.203     1.203   0.0% |
  XC 3D grid:                        2.900     2.900   0.1% |
  vbar:                              0.788     0.788   0.0% |
 LCAO eigensolver:                2403.982     0.056   0.0% |
  Calculate projections:             6.991     6.991   0.3% |
  DenseAtomicCorrection:            23.152    23.152   0.9% |
  Distribute overlap matrix:         0.040     0.040   0.0% |
  Orbital Layouts:                2299.141  2299.141  84.6% |---------------------------------|
  Potential matrix:                 67.745    67.745   2.5% ||
  Sum over cells:                    6.857     6.857   0.3% |
ST tci:                              0.263     0.263   0.0% |
Set symmetry:                        0.001     0.001   0.0% |
TCI: Evaluate splines:               0.350     0.350   0.0% |
mktci:                               0.007     0.007   0.0% |
Other:                               0.758     0.758   0.0% |
-----------------------------------------------------------
Total:                                      2717.387 100.0%

Memory usage: 1.31 GiB
Date: Tue Feb 17 16:15:55 2026
