
  ___ ___ ___ _ _ _  
 |   |   |_  | | | | 
 | | | | | . | | | | 
 |__ |  _|___|_____|  25.7.0
 |___|_|             

User:   ubuntu@third-test
Date:   Wed Feb 18 04:52:24 2026
Arch:   x86_64
Pid:    2718679
CWD:    /mnt/vdd1/work/cemea/fairchem/src/fairchem/applications/ocx/mo_h_adsorption_workflow
Python: 3.10.16
gpaw:   /home/ubuntu/.pyenv/versions/cemea-env/lib/python3.10/site-packages/gpaw
_gpaw:  /home/ubuntu/.pyenv/versions/cemea-env/lib/python3.10/site-packages/
        _gpaw.cpython-310-x86_64-linux-gnu.so
ase:    /home/ubuntu/.pyenv/versions/cemea-env/lib/python3.10/site-packages/ase (version 3.27.0)
numpy:  /home/ubuntu/.pyenv/versions/cemea-env/lib/python3.10/site-packages/numpy (version 2.2.6)
scipy:  /home/ubuntu/.pyenv/versions/cemea-env/lib/python3.10/site-packages/scipy (version 1.15.3)
libxc:  2.x.y
units:  Angstrom and eV
cores: 1
OpenMP: False
OMP_NUM_THREADS: 1

Input parameters:
  basis: dzp
  convergence: {density: 0.0001,
                eigenstates: 1e-05,
                energy: 1e-05}
  kpts: [4 4 1]
  mode: lcao

System changes: positions, numbers, cell, pbc, initial_charges, initial_magmoms 

Initialize ...

species:
  Mo:
    name: Molybdenum
    id: ac24daaf086600a00ce6d19a74574df1
    Z: 42.0
    valence: 14
    core: 28
    charge: 0.0
    file: /home/ubuntu/.pyenv/versions/cemea-env/lib/python3.10/site-packages/gpaw_data/setups/Mo.LDA.gz
    compensation charges: {type: gauss,
                           rc: 0.38,
                           lmax: 2}
    cutoffs: {filter: 2.16,
              core: 1.42}
    projectors:
      #              energy  rcut
      - 4s(2.00)   -64.384   1.238
      - 5s(1.00)    -4.319   1.238
      - 4p(6.00)   -38.595   1.296
      - 5p(0.00)    -1.161   1.296
      - 4d(5.00)    -3.933   1.296
      -  d          23.278   1.296
  
    # LCAO basis set for Mo:
    #   Name: dzp
    #   File: /home/ubuntu/.pyenv/versions/cemea-env/lib/python3.10/site-packages/gpaw_data/setups/Mo.dzp.basis.gz
    #   Number of radial functions: 11
    #   Number of spherical harmonics: 29
    #     l=0, rc=3.5469 Bohr: 4s-sz confined orbital
    #     l=0, rc=10.0469 Bohr: 5s-sz confined orbital
    #     l=1, rc=4.0781 Bohr: 4p-sz confined orbital
    #     l=1, rc=14.0938 Bohr: 5p-sz confined orbital
    #     l=2, rc=7.2031 Bohr: 4d-sz confined orbital
    #     l=0, rc=2.1250 Bohr: 4s-dz split-valence wave
    #     l=0, rc=6.1250 Bohr: 5s-dz split-valence wave
    #     l=1, rc=2.5469 Bohr: 4p-dz split-valence wave
    #     l=1, rc=8.7656 Bohr: 5p-dz split-valence wave
    #     l=2, rc=4.2344 Bohr: 4d-dz split-valence wave
    #     l=1, rc=10.0469 Bohr: p-type Gaussian polarization
    #   Number of RI-basis functions 0

  Pt:
    name: Platinum
    id: 5a6399afde4becbffda6f57f3efd9534
    Z: 78.0
    valence: 16
    core: 62
    charge: 0.0
    file: /home/ubuntu/.pyenv/versions/cemea-env/lib/python3.10/site-packages/gpaw_data/setups/Pt.LDA.gz
    compensation charges: {type: gauss,
                           rc: 0.41,
                           lmax: 2}
    cutoffs: {filter: 2.26,
              core: 2.26}
    projectors:
      #              energy  rcut
      - 6s(1.00)    -5.930   1.307
      - 5p(6.00)   -56.318   1.371
      - 6p(0.00)    -0.962   1.371
      - 5d(9.00)    -6.387   1.307
      -  s          21.281   1.307
      -  d          20.825   1.307
  
    # LCAO basis set for Pt:
    #   Name: dzp
    #   File: /home/ubuntu/.pyenv/versions/cemea-env/lib/python3.10/site-packages/gpaw_data/setups/Pt.dzp.basis.gz
    #   Number of radial functions: 9
    #   Number of spherical harmonics: 27
    #     l=0, rc=8.5938 Bohr: 6s-sz confined orbital
    #     l=1, rc=3.5781 Bohr: 5p-sz confined orbital
    #     l=1, rc=13.6250 Bohr: 6p-sz confined orbital
    #     l=2, rc=6.0938 Bohr: 5d-sz confined orbital
    #     l=0, rc=5.0625 Bohr: 6s-dz split-valence wave
    #     l=1, rc=2.4219 Bohr: 5p-dz split-valence wave
    #     l=1, rc=8.3281 Bohr: 6p-dz split-valence wave
    #     l=2, rc=3.6406 Bohr: 5d-dz split-valence wave
    #     l=1, rc=8.5938 Bohr: p-type Gaussian polarization
    #   Number of RI-basis functions 0

  N:
    name: Nitrogen
    id: c467cdfa1b75f62c8f7a0469921b1cfb
    Z: 7.0
    valence: 5
    core: 2
    charge: 0.0
    file: /home/ubuntu/.pyenv/versions/cemea-env/lib/python3.10/site-packages/gpaw_data/setups/N.LDA.gz
    compensation charges: {type: gauss,
                           rc: 0.18,
                           lmax: 2}
    cutoffs: {filter: 1.11,
              core: 0.96}
    projectors:
      #              energy  rcut
      - 2s(2.00)   -18.420   0.603
      - 2p(3.00)    -7.237   0.529
      -  s           8.791   0.603
      -  p          19.974   0.529
      -  d           0.000   0.577
  
    # LCAO basis set for N:
    #   Name: dzp
    #   File: /home/ubuntu/.pyenv/versions/cemea-env/lib/python3.10/site-packages/gpaw_data/setups/N.dzp.basis.gz
    #   Number of radial functions: 5
    #   Number of spherical harmonics: 13
    #     l=0, rc=4.8594 Bohr: 2s-sz confined orbital
    #     l=1, rc=6.0625 Bohr: 2p-sz confined orbital
    #     l=0, rc=2.6094 Bohr: 2s-dz split-valence wave
    #     l=1, rc=3.2656 Bohr: 2p-dz split-valence wave
    #     l=2, rc=6.0625 Bohr: d-type Gaussian polarization
    #   Number of RI-basis functions 0

  H:
    name: Hydrogen
    id: 4766778ce56282eaa64abeb28b7c1de3
    Z: 1.0
    valence: 1
    core: 0
    charge: 0.0
    file: /home/ubuntu/.pyenv/versions/cemea-env/lib/python3.10/site-packages/gpaw_data/setups/H.LDA.gz
    compensation charges: {type: gauss,
                           rc: 0.15,
                           lmax: 2}
    cutoffs: {filter: 0.85,
              core: 0.53}
    projectors:
      #              energy  rcut
      - 1s(1.00)    -6.353   0.476
      -  s          20.858   0.476
      -  p           0.000   0.476
  
    # LCAO basis set for H:
    #   Name: dzp
    #   File: /home/ubuntu/.pyenv/versions/cemea-env/lib/python3.10/site-packages/gpaw_data/setups/H.dzp.basis.gz
    #   Number of radial functions: 3
    #   Number of spherical harmonics: 5
    #     l=0, rc=6.4219 Bohr: 1s-sz confined orbital
    #     l=0, rc=3.6094 Bohr: 1s-dz split-valence wave
    #     l=1, rc=6.4219 Bohr: p-type Gaussian polarization
    #   Number of RI-basis functions 0

Reference energy: -1276131.066865  # eV

Spin-paired calculation

Convergence criteria:
 Maximum [total energy] change in last 3 cyles: 1e-05 eV / valence electron
 Maximum integral of absolute [dens]ity change: 0.0001 electrons / valence electron
 Maximum integral of absolute [eigenst]ate change: 1e-05 eV^2 / valence electron
 Maximum number of scf [iter]ations: 333
 (Square brackets indicate name in SCF output, whereas a 'c' in
 the SCF output indicates the quantity has converged.)

Symmetries present (total): 2

  ( 1  0  0)  ( 0  1  0)
  ( 0  1  0)  ( 1  0  0)
  ( 0  0  1)  ( 0  0  1)

16 k-points: 4 x 4 x 1 Monkhorst-Pack grid
6 k-points in the irreducible part of the Brillouin zone
       k-points in crystal coordinates                weights
   0:     0.12500000   -0.12500000    0.00000000          2/16
   1:     0.12500000    0.12500000    0.00000000          2/16
   2:     0.37500000   -0.37500000    0.00000000          2/16
   3:     0.37500000   -0.12500000    0.00000000          4/16
   4:     0.37500000    0.12500000    0.00000000          4/16
   5:     0.37500000    0.37500000    0.00000000          2/16

Wave functions: LCAO
  Diagonalizer: Serial LAPACK
  Atomic Correction: dense with blas
  Data-type: complex
 

Occupation numbers: Fermi-Dirac:
  width: 0.1000  # eV
 

Eigensolver
   LCAO using direct dense diagonalizer 

Densities:
  Coarse grid: 40*40*92 grid
  Fine grid: 80*80*184 grid
  Total Charge: 0.000000 

Density mixing:
  Method: separate
  Backend: pulay
  Linear mixing parameter: 0.05
  old densities: 5
  Damping of long wavelength oscillations: 50 

Hamiltonian:
  XC and Coulomb potentials evaluated on a 80*80*184 grid
  Using the LDA Exchange-Correlation functional
  Interpolation: tri-quintic (5. degree polynomial)
  Poisson solver: FastPoissonSolver using
    Stencil: 6*3+1=19 point O(h^6) finite-difference Laplacian
    FFT axes: [np.int64(0), np.int64(1), np.int64(2)]
    FST axes: []
 

Memory estimate:
  Process memory now: 1340.54 MiB
  Calculator: 200.64 MiB
    Density: 81.30 MiB
      Arrays: 29.20 MiB
      Localized functions: 40.87 MiB
      Mixer: 11.23 MiB
    Hamiltonian: 21.74 MiB
      Arrays: 19.09 MiB
      XC: 0.00 MiB
      Poisson: 0.00 MiB
      vbar: 2.65 MiB
    Wavefunctions: 97.60 MiB
      C [qnM]: 2.23 MiB
      S, T [2 x qmm]: 15.08 MiB
      P [aqMi]: 0.33 MiB
      BasisFunctions: 79.96 MiB
      Eigensolver: 0.00 MiB

Total number of cores used: 1

Number of atoms: 13
Number of atomic orbitals: 287
Number of bands in calculation: 85
Number of valence electrons: 135
Bands to converge: occupied

... initialized

Initializing position-dependent things.

Density initialized from atomic densities
      .-------------------.  
     /|                   |  
    / |                   |  
   /  |                   |  
  /   |                   |  
 *    |                   |  
 |    |                   |  
 |    |                   |  
 |    |                   |  
 |    |                   |  
 |    |                   |  
 |    |   MH        Mo    |  
 |    |                   |  
 |    |Pt        Mo       |  
 |    |   N         N     |  
 |  Mo|       Mo          |  
 |    |N         N        |  
 Mo   |    Mo             |  
 |    |                   |  
 |    |                   |  
 |    |                   |  
 |    |                   |  
 |    .-------------------.  
 |   /                   /   
 |  /                   /    
 | /                   /     
 |/                   /      
 *-------------------*       

Atomic positions and initial magnetic moments

Positions:
   0 Mo     0.000000    0.000000    8.000000    ( 0.0000,  0.0000,  0.0000)
   1 Pt     2.080000    2.080000   10.080000    ( 0.0000,  0.0000,  0.0000)
   2 N      2.080000    2.080000    8.000000    ( 0.0000,  0.0000,  0.0000)
   3 Mo     0.000000    4.160000    8.000000    ( 0.0000,  0.0000,  0.0000)
   4 Mo     2.080000    6.240000   10.080000    ( 0.0000,  0.0000,  0.0000)
   5 N      2.080000    6.240000    8.000000    ( 0.0000,  0.0000,  0.0000)
   6 Mo     4.160000    0.000000    8.000000    ( 0.0000,  0.0000,  0.0000)
   7 Mo     6.240000    2.080000   10.080000    ( 0.0000,  0.0000,  0.0000)
   8 N      6.240000    2.080000    8.000000    ( 0.0000,  0.0000,  0.0000)
   9 Mo     4.160000    4.160000    8.000000    ( 0.0000,  0.0000,  0.0000)
  10 Mo     6.240000    6.240000   10.080000    ( 0.0000,  0.0000,  0.0000)
  11 N      6.240000    6.240000    8.000000    ( 0.0000,  0.0000,  0.0000)
  12 H      3.466667    3.466667   11.580000    ( 0.0000,  0.0000,  0.0000)

Unit cell:
           periodic     x           y           z      points  spacing
  1. axis:    yes    8.320000    0.000000    0.000000    40     0.2080
  2. axis:    yes    0.000000    8.320000    0.000000    40     0.2080
  3. axis:    yes    0.000000    0.000000   18.080000    92     0.1965

  Lengths:   8.320000   8.320000  18.080000
  Angles:   90.000000  90.000000  90.000000

Effective grid spacing dv^(1/3) = 0.2041

     iter     time        total  log10-change:
                         energy   eigst   dens
iter:   1 04:53:36   -91.612092        c
iter:   2 04:55:01   -85.019524        c -0.88
iter:   3 04:56:15   -82.017796        c -0.99
iter:   4 04:57:29   -77.817978        c -1.01
iter:   5 04:58:44   -77.771264        c -1.20
iter:   6 04:59:58   -76.161890        c -1.19
iter:   7 05:01:16   -75.236512        c -1.33
iter:   8 05:02:38   -74.842124        c -1.46
iter:   9 05:04:00   -74.856631        c -1.65
iter:  10 05:05:17   -74.592649        c -1.58
iter:  11 05:06:36   -74.564034        c -1.81
iter:  12 05:07:49   -74.533353        c -1.86
iter:  13 05:09:15   -74.523572        c -1.97
iter:  14 05:10:35   -74.513001        c -2.01
iter:  15 05:11:49   -74.504435        c -2.09
iter:  16 05:13:07   -74.500400        c -2.14
iter:  17 05:14:32   -74.494013        c -2.23
iter:  18 05:15:57   -74.489373        c -2.31
iter:  19 05:17:18   -74.486795        c -2.39
iter:  20 05:18:38   -74.483680        c -2.43
iter:  21 05:19:51   -74.483134        c -2.54
iter:  22 05:21:15   -74.481101        c -2.61
iter:  23 05:22:38   -74.481019        c -2.68
iter:  24 05:23:58   -74.480162c       c -2.76
iter:  25 05:25:21   -74.479908c       c -2.80
iter:  26 05:26:38   -74.479577c       c -2.86
iter:  27 05:28:00   -74.479444c       c -2.89
iter:  28 05:29:17   -74.479384c       c -2.92
iter:  29 05:30:44   -74.479115c       c -2.97
iter:  30 05:32:08   -74.479220c       c -3.01
iter:  31 05:33:33   -74.479177c       c -3.05
iter:  32 05:34:48   -74.479101c       c -3.07
iter:  33 05:36:09   -74.478992c       c -3.11
iter:  34 05:37:26   -74.479022c       c -3.14
iter:  35 05:38:50   -74.478782c       c -3.16
iter:  36 05:40:09   -74.478815c       c -3.25
iter:  37 05:41:33   -74.478667c       c -3.32
iter:  38 05:43:00   -74.478645c       c -3.37
iter:  39 05:44:25   -74.478526c       c -3.46
iter:  40 05:45:49   -74.478545c       c -3.50
iter:  41 05:47:19   -74.478436c       c -3.56
iter:  42 05:48:43   -74.478457c       c -3.67
iter:  43 05:50:05   -74.478380c       c -3.61
iter:  44 05:51:28   -74.478378c       c -3.71
iter:  45 05:52:54   -74.478355c       c -3.70
iter:  46 05:54:21   -74.478358c       c -3.69
iter:  47 05:55:47   -74.478326c       c -3.73
iter:  48 05:57:08   -74.478339c       c -3.74
iter:  49 05:58:32   -74.478307c       c -3.78
iter:  50 05:59:49   -74.478327c       c -3.83
iter:  51 06:01:03   -74.478313c       c -3.83
iter:  52 06:02:22   -74.478348c       c -3.93
iter:  53 06:03:46   -74.478339c       c -3.85
iter:  54 06:05:01   -74.478364c       c -3.97
iter:  55 06:06:25   -74.478347c       c -4.03c

Converged after 55 iterations.

Dipole moment: (-4.961728, -4.961728, 0.078419) |e|*Ang

Energy contributions relative to reference atoms: (reference = -1276131.066865)

Kinetic:       -201.924549
Potential:     +138.131322
External:        +0.000000
XC:             -12.074419
Entropy (-ST):   -1.371819
Local:           +2.075209
SIC:             +0.000000
--------------------------
Free energy:    -75.164257
Extrapolated:   -74.478347

Showing only first 2 kpts
 Kpt  Band  Eigenvalues  Occupancy
  0    65     -2.29706    1.21539
  0    66     -2.27962    1.13090
  0    67     -2.24876    0.97734
  0    68     -2.23790    0.92317

  1    65     -2.28797    1.17169
  1    66     -2.28354    1.15008
  1    67     -2.24626    0.96486
  1    68     -2.23919    0.92963


Fermi level: -2.25329

Gap: 0.012 eV
Transition (v -> c):
  (s=0, k=4, n=66, [0.38, 0.12, 0.00]) -> (s=0, k=0, n=67, [0.12, -0.12, 0.00])
Direct/indirect transitions are different
Direct gap: 0.031 eV
Transition at: (s=0, k=0, n=66, [0.12, -0.12, 0.00])
Timing:                              incl.     excl.
-----------------------------------------------------------
Basic WFS set positions:             0.000     0.000   0.0% |
Basis functions set positions:       0.111     0.111   0.0% |
LCAO WFS Initialize:                 0.372     0.060   0.0% |
 Hamiltonian:                        0.311     0.000   0.0% |
  Atomic:                            0.081     0.001   0.0% |
   XC Correction:                    0.080     0.080   0.0% |
  Calculate atomic Hamiltonians:     0.008     0.008   0.0% |
  Communicate:                       0.000     0.000   0.0% |
  Hartree integrate/restrict:        0.027     0.027   0.0% |
  Initialize Hamiltonian:            0.000     0.000   0.0% |
  Poisson:                           0.131     0.006   0.0% |
   Communicate from 1D:              0.019     0.019   0.0% |
   Communicate from 2D:              0.017     0.017   0.0% |
   Communicate to 1D:                0.020     0.020   0.0% |
   Communicate to 2D:                0.023     0.023   0.0% |
   FFT 1D:                           0.018     0.018   0.0% |
   FFT 2D:                           0.027     0.027   0.0% |
  XC 3D grid:                        0.060     0.060   0.0% |
  vbar:                              0.004     0.004   0.0% |
P tci:                               0.640     0.640   0.0% |
SCF-cycle:                        4434.798     0.074   0.0% |
 Density:                          509.701     0.002   0.0% |
  Atomic density matrices:           0.194     0.194   0.0% |
  Mix:                              18.858    18.858   0.4% |
  Multipole moments:                 0.014     0.014   0.0% |
  Normalize:                         0.005     0.005   0.0% |
  Pseudo density:                  490.629     0.036   0.0% |
   Calculate density matrix:        10.285    10.285   0.2% |
   Construct density:              480.095   480.095  10.8% |---|
   Symmetrize density:               0.213     0.213   0.0% |
 Hamiltonian:                       20.002     0.005   0.0% |
  Atomic:                            4.615     0.071   0.0% |
   XC Correction:                    4.544     4.544   0.1% |
  Calculate atomic Hamiltonians:     0.454     0.454   0.0% |
  Communicate:                       0.000     0.000   0.0% |
  Hartree integrate/restrict:        1.995     1.995   0.0% |
  Poisson:                           7.408     0.376   0.0% |
   Communicate from 1D:              1.129     1.129   0.0% |
   Communicate from 2D:              1.026     1.026   0.0% |
   Communicate to 1D:                0.910     0.910   0.0% |
   Communicate to 2D:                1.244     1.244   0.0% |
   FFT 1D:                           1.027     1.027   0.0% |
   FFT 2D:                           1.696     1.696   0.0% |
  XC 3D grid:                        4.283     4.283   0.1% |
  vbar:                              1.241     1.241   0.0% |
 LCAO eigensolver:                3905.021     0.112   0.0% |
  Calculate projections:            12.527    12.527   0.3% |
  DenseAtomicCorrection:           103.818   103.818   2.3% ||
  Distribute overlap matrix:         0.077     0.077   0.0% |
  Orbital Layouts:                3661.703  3661.703  82.4% |--------------------------------|
  Potential matrix:                117.739   117.739   2.7% ||
  Sum over cells:                    9.047     9.047   0.2% |
ST tci:                              0.313     0.313   0.0% |
Set symmetry:                        0.001     0.001   0.0% |
TCI: Evaluate splines:               0.831     0.831   0.0% |
mktci:                               0.007     0.007   0.0% |
Other:                               4.117     4.117   0.1% |
-----------------------------------------------------------
Total:                                      4441.189 100.0%

Memory usage: 1.31 GiB
Date: Wed Feb 18 06:06:25 2026
