
  ___ ___ ___ _ _ _  
 |   |   |_  | | | | 
 | | | | | . | | | | 
 |__ |  _|___|_____|  25.7.0
 |___|_|             

User:   mikei@Z790-AORUS-ELITE-AX
Date:   Mon Feb 23 09:23:37 2026
Arch:   x86_64
Pid:    89048
CWD:    /home/mikei/Dokumenty/code/cemea/ocx
Python: 3.10.16
gpaw:   /home/mikei/.pyenv/versions/cemea-env/lib/python3.10/site-packages/gpaw
_gpaw:  /home/mikei/.pyenv/versions/cemea-env/lib/python3.10/site-packages/
        _gpaw.cpython-310-x86_64-linux-gnu.so
ase:    /home/mikei/.pyenv/versions/cemea-env/lib/python3.10/site-packages/ase (version 3.27.0)
numpy:  /home/mikei/.pyenv/versions/cemea-env/lib/python3.10/site-packages/numpy (version 2.2.6)
scipy:  /home/mikei/.pyenv/versions/cemea-env/lib/python3.10/site-packages/scipy (version 1.15.3)
libxc:  2.x.y
units:  Angstrom and eV
cores: 1
OpenMP: False
OMP_NUM_THREADS: 1

Input parameters:
  basis: dzp
  convergence: {density: 0.0001,
                eigenstates: 1e-05,
                energy: 1e-05}
  kpts: [4 4 1]
  mode: lcao

System changes: positions, numbers, cell, pbc, initial_charges, initial_magmoms 

Initialize ...

species:
  Ni:
    name: Nickel
    id: 1802175e8de9ea26d9f4394ec1a7d564
    Z: 28.0
    valence: 16
    core: 12
    charge: 0.0
    file: /home/mikei/.pyenv/versions/cemea-env/lib/python3.10/site-packages/gpaw_data/setups/Ni.LDA.gz
    compensation charges: {type: gauss,
                           rc: 0.36,
                           lmax: 2}
    cutoffs: {filter: 2.14,
              core: 1.98}
    projectors:
      #              energy  rcut
      - 4s(2.00)    -5.858   1.164
      - 3p(6.00)   -71.266   1.207
      - 4p(0.00)    -1.338   1.207
      - 3d(8.00)    -9.141   1.138
      -  s          21.353   1.164
      -  d          18.071   1.138
  
    # LCAO basis set for Ni:
    #   Name: dzp
    #   File: /home/mikei/.pyenv/versions/cemea-env/lib/python3.10/site-packages/gpaw_data/setups/Ni.dzp.basis.gz
    #   Number of radial functions: 9
    #   Number of spherical harmonics: 27
    #     l=0, rc=8.5156 Bohr: 4s-sz confined orbital
    #     l=1, rc=2.9375 Bohr: 3p-sz confined orbital
    #     l=1, rc=12.4062 Bohr: 4p-sz confined orbital
    #     l=2, rc=4.6875 Bohr: 3d-sz confined orbital
    #     l=0, rc=4.9688 Bohr: 4s-dz split-valence wave
    #     l=1, rc=2.0781 Bohr: 3p-dz split-valence wave
    #     l=1, rc=7.5469 Bohr: 4p-dz split-valence wave
    #     l=2, rc=2.9375 Bohr: 3d-dz split-valence wave
    #     l=1, rc=8.5156 Bohr: p-type Gaussian polarization
    #   Number of RI-basis functions 0

  Mo:
    name: Molybdenum
    id: ac24daaf086600a00ce6d19a74574df1
    Z: 42.0
    valence: 14
    core: 28
    charge: 0.0
    file: /home/mikei/.pyenv/versions/cemea-env/lib/python3.10/site-packages/gpaw_data/setups/Mo.LDA.gz
    compensation charges: {type: gauss,
                           rc: 0.38,
                           lmax: 2}
    cutoffs: {filter: 2.16,
              core: 1.42}
    projectors:
      #              energy  rcut
      - 4s(2.00)   -64.384   1.238
      - 5s(1.00)    -4.319   1.238
      - 4p(6.00)   -38.595   1.296
      - 5p(0.00)    -1.161   1.296
      - 4d(5.00)    -3.933   1.296
      -  d          23.278   1.296
  
    # LCAO basis set for Mo:
    #   Name: dzp
    #   File: /home/mikei/.pyenv/versions/cemea-env/lib/python3.10/site-packages/gpaw_data/setups/Mo.dzp.basis.gz
    #   Number of radial functions: 11
    #   Number of spherical harmonics: 29
    #     l=0, rc=3.5469 Bohr: 4s-sz confined orbital
    #     l=0, rc=10.0469 Bohr: 5s-sz confined orbital
    #     l=1, rc=4.0781 Bohr: 4p-sz confined orbital
    #     l=1, rc=14.0938 Bohr: 5p-sz confined orbital
    #     l=2, rc=7.2031 Bohr: 4d-sz confined orbital
    #     l=0, rc=2.1250 Bohr: 4s-dz split-valence wave
    #     l=0, rc=6.1250 Bohr: 5s-dz split-valence wave
    #     l=1, rc=2.5469 Bohr: 4p-dz split-valence wave
    #     l=1, rc=8.7656 Bohr: 5p-dz split-valence wave
    #     l=2, rc=4.2344 Bohr: 4d-dz split-valence wave
    #     l=1, rc=10.0469 Bohr: p-type Gaussian polarization
    #   Number of RI-basis functions 0

  C:
    name: Carbon
    id: d60576a1f549371a163e72552ca58787
    Z: 6.0
    valence: 4
    core: 2
    charge: 0.0
    file: /home/mikei/.pyenv/versions/cemea-env/lib/python3.10/site-packages/gpaw_data/setups/C.LDA.gz
    compensation charges: {type: gauss,
                           rc: 0.20,
                           lmax: 2}
    cutoffs: {filter: 1.14,
              core: 1.14}
    projectors:
      #              energy  rcut
      - 2s(2.00)   -13.639   0.635
      - 2p(2.00)    -5.414   0.635
      -  s          13.573   0.635
      -  p          21.797   0.635
      -  d           0.000   0.635
  
    # LCAO basis set for C:
    #   Name: dzp
    #   File: /home/mikei/.pyenv/versions/cemea-env/lib/python3.10/site-packages/gpaw_data/setups/C.dzp.basis.gz
    #   Number of radial functions: 5
    #   Number of spherical harmonics: 13
    #     l=0, rc=5.5469 Bohr: 2s-sz confined orbital
    #     l=1, rc=6.6719 Bohr: 2p-sz confined orbital
    #     l=0, rc=3.0312 Bohr: 2s-dz split-valence wave
    #     l=1, rc=3.7500 Bohr: 2p-dz split-valence wave
    #     l=2, rc=6.6719 Bohr: d-type Gaussian polarization
    #   Number of RI-basis functions 0

Reference energy: -2536257.549247  # eV

Spin-paired calculation

Convergence criteria:
 Maximum [total energy] change in last 3 cyles: 1e-05 eV / valence electron
 Maximum integral of absolute [dens]ity change: 0.0001 electrons / valence electron
 Maximum integral of absolute [eigenst]ate change: 1e-05 eV^2 / valence electron
 Maximum number of scf [iter]ations: 333
 (Square brackets indicate name in SCF output, whereas a 'c' in
 the SCF output indicates the quantity has converged.)

Symmetries present (total): 2

  ( 1  0  0)  ( 0  1  0)
  ( 0  1  0)  ( 1  0  0)
  ( 0  0  1)  ( 0  0  1)

16 k-points: 4 x 4 x 1 Monkhorst-Pack grid
6 k-points in the irreducible part of the Brillouin zone
       k-points in crystal coordinates                weights
   0:     0.12500000   -0.12500000    0.00000000          2/16
   1:     0.12500000    0.12500000    0.00000000          2/16
   2:     0.37500000   -0.37500000    0.00000000          2/16
   3:     0.37500000   -0.12500000    0.00000000          4/16
   4:     0.37500000    0.12500000    0.00000000          4/16
   5:     0.37500000    0.37500000    0.00000000          2/16

Wave functions: LCAO
  Diagonalizer: Serial LAPACK
  Atomic Correction: dense with blas
  Data-type: complex
 

Occupation numbers: Fermi-Dirac:
  width: 0.1000  # eV
 

Eigensolver
   LCAO using direct dense diagonalizer 

Densities:
  Coarse grid: 36*36*128 grid
  Fine grid: 72*72*256 grid
  Total Charge: 0.000000 

Density mixing:
  Method: separate
  Backend: pulay
  Linear mixing parameter: 0.05
  old densities: 5
  Damping of long wavelength oscillations: 50 

Hamiltonian:
  XC and Coulomb potentials evaluated on a 72*72*256 grid
  Using the LDA Exchange-Correlation functional
  Interpolation: tri-quintic (5. degree polynomial)
  Poisson solver: FastPoissonSolver using
    Stencil: 6*3+1=19 point O(h^6) finite-difference Laplacian
    FFT axes: [np.int64(0), np.int64(1), np.int64(2)]
    FST axes: []
 

Memory estimate:
  Process memory now: 4595.48 MiB
  Calculator: 989.42 MiB
    Density: 237.05 MiB
      Arrays: 32.91 MiB
      Localized functions: 191.49 MiB
      Mixer: 12.66 MiB
    Hamiltonian: 35.76 MiB
      Arrays: 21.52 MiB
      XC: 0.00 MiB
      Poisson: 0.00 MiB
      vbar: 14.25 MiB
    Wavefunctions: 716.60 MiB
      C [qnM]: 58.07 MiB
      S, T [2 x qmm]: 340.67 MiB
      P [aqMi]: 7.15 MiB
      BasisFunctions: 310.72 MiB
      Eigensolver: 0.00 MiB

Total number of cores used: 1

Number of atoms: 52
Number of atomic orbitals: 1364
Number of bands in calculation: 465
Number of valence electrons: 768
Bands to converge: occupied

... initialized

Initializing position-dependent things.

Density initialized from atomic densities
      .-----------------.  
     /|                 |  
    / |                 |  
   /  |                 |  
  /   |                 |  
 *    |                 |  
 |    |                 |  
 |    |                 |  
 |    |                 |  
 |    |                 |  
 |    |  Ni    Ni       |  
 |    |Ni Mo Ni     Mo  |  
 |    |                 |  
 |    |Mo C      Mo C   |  
 |  Mo|       Mo        |  
 |    |                 |  
 |    |C         C      |  
 Mo Ni|   NMo   Ni      |  
 | Ni | NNi   NNi   Ni  |  
 |    |                 |  
 Ni   NNi   NNi   Ni    |  
 |  NNi   NNi   NNi     |  
 | Ni | NNi   NNi   Ni  |  
 |    |                 |  
 Ni   NNi   NNi   Ni    |  
 |   Ni    Ni    Ni     |  
 |    |                 |  
 |    |                 |  
 |    |                 |  
 |    |                 |  
 |    |                 |  
 |    .-----------------.  
 |   /                 /   
 |  /                 /    
 | /                 /     
 |/                 /      
 *-----------------*       

Atomic positions and initial magnetic moments

Positions:
   0 Ni     1.244508    1.244508    8.000000    ( 0.0000,  0.0000,  0.0000)
   1 Ni     3.733524    1.244508    8.000000    ( 0.0000,  0.0000,  0.0000)
   2 Ni     6.222540    1.244508    8.000000    ( 0.0000,  0.0000,  0.0000)
   3 Ni     1.244508    3.733524    8.000000    ( 0.0000,  0.0000,  0.0000)
   4 Ni     3.733524    3.733524    8.000000    ( 0.0000,  0.0000,  0.0000)
   5 Ni     6.222540    3.733524    8.000000    ( 0.0000,  0.0000,  0.0000)
   6 Ni     1.244508    6.222540    8.000000    ( 0.0000,  0.0000,  0.0000)
   7 Ni     3.733524    6.222540    8.000000    ( 0.0000,  0.0000,  0.0000)
   8 Ni     6.222540    6.222540    8.000000    ( 0.0000,  0.0000,  0.0000)
   9 Ni     0.000000    0.000000    9.760000    ( 0.0000,  0.0000,  0.0000)
  10 Ni     2.489016    0.000000    9.760000    ( 0.0000,  0.0000,  0.0000)
  11 Ni     4.978032    0.000000    9.760000    ( 0.0000,  0.0000,  0.0000)
  12 Ni     0.000000    2.489016    9.760000    ( 0.0000,  0.0000,  0.0000)
  13 Ni     2.489016    2.489016    9.760000    ( 0.0000,  0.0000,  0.0000)
  14 Ni     4.978032    2.489016    9.760000    ( 0.0000,  0.0000,  0.0000)
  15 Ni     0.000000    4.978032    9.760000    ( 0.0000,  0.0000,  0.0000)
  16 Ni     2.489016    4.978032    9.760000    ( 0.0000,  0.0000,  0.0000)
  17 Ni     4.978032    4.978032    9.760000    ( 0.0000,  0.0000,  0.0000)
  18 Ni     1.244508    1.244508   11.520000    ( 0.0000,  0.0000,  0.0000)
  19 Ni     3.733524    1.244508   11.520000    ( 0.0000,  0.0000,  0.0000)
  20 Ni     6.222540    1.244508   11.520000    ( 0.0000,  0.0000,  0.0000)
  21 Ni     1.244508    3.733524   11.520000    ( 0.0000,  0.0000,  0.0000)
  22 Ni     3.733524    3.733524   11.520000    ( 0.0000,  0.0000,  0.0000)
  23 Ni     6.222540    3.733524   11.520000    ( 0.0000,  0.0000,  0.0000)
  24 Ni     1.244508    6.222540   11.520000    ( 0.0000,  0.0000,  0.0000)
  25 Ni     3.733524    6.222540   11.520000    ( 0.0000,  0.0000,  0.0000)
  26 Ni     6.222540    6.222540   11.520000    ( 0.0000,  0.0000,  0.0000)
  27 Ni     0.000000    0.000000   13.280000    ( 0.0000,  0.0000,  0.0000)
  28 Ni     2.489016    0.000000   13.280000    ( 0.0000,  0.0000,  0.0000)
  29 Ni     4.978032    0.000000   13.280000    ( 0.0000,  0.0000,  0.0000)
  30 Ni     0.000000    2.489016   13.280000    ( 0.0000,  0.0000,  0.0000)
  31 Ni     2.489016    2.489016   13.280000    ( 0.0000,  0.0000,  0.0000)
  32 Ni     4.978032    2.489016   13.280000    ( 0.0000,  0.0000,  0.0000)
  33 Ni     0.000000    4.978032   13.280000    ( 0.0000,  0.0000,  0.0000)
  34 Ni     2.489016    4.978032   13.280000    ( 0.0000,  0.0000,  0.0000)
  35 Ni     4.978032    4.978032   13.280000    ( 0.0000,  0.0000,  0.0000)
  36 Mo     0.000000    0.000000   15.480000    ( 0.0000,  0.0000,  0.0000)
  37 Mo     2.060000    2.060000   17.540000    ( 0.0000,  0.0000,  0.0000)
  38 C      2.060000    2.060000   15.480000    ( 0.0000,  0.0000,  0.0000)
  39 Mo     0.000000    4.120000   15.480000    ( 0.0000,  0.0000,  0.0000)
  40 Mo     2.060000    6.180000   17.540000    ( 0.0000,  0.0000,  0.0000)
  41 C      2.060000    6.180000   15.480000    ( 0.0000,  0.0000,  0.0000)
  42 Mo     4.120000    0.000000   15.480000    ( 0.0000,  0.0000,  0.0000)
  43 Mo     6.180000    2.060000   17.540000    ( 0.0000,  0.0000,  0.0000)
  44 C      6.180000    2.060000   15.480000    ( 0.0000,  0.0000,  0.0000)
  45 Mo     4.120000    4.120000   15.480000    ( 0.0000,  0.0000,  0.0000)
  46 Mo     6.180000    6.180000   17.540000    ( 0.0000,  0.0000,  0.0000)
  47 C      6.180000    6.180000   15.480000    ( 0.0000,  0.0000,  0.0000)
  48 Ni     1.991786    1.991786   19.340000    ( 0.0000,  0.0000,  0.0000)
  49 Ni     1.991786    4.391786   19.340000    ( 0.0000,  0.0000,  0.0000)
  50 Ni     4.391786    1.991786   19.340000    ( 0.0000,  0.0000,  0.0000)
  51 Ni     4.391786    4.391786   19.340000    ( 0.0000,  0.0000,  0.0000)

Unit cell:
           periodic     x           y           z      points  spacing
  1. axis:    yes    7.467048    0.000000    0.000000    36     0.2074
  2. axis:    yes    0.000000    7.467048    0.000000    36     0.2074
  3. axis:    yes    0.000000    0.000000   25.540000   128     0.1995

  Lengths:   7.467048   7.467048  25.540000
  Angles:   90.000000  90.000000  90.000000

Effective grid spacing dv^(1/3) = 0.2048

     iter     time        total  log10-change:
                         energy   eigst   dens
iter:   1 09:24:15 -1024.691246        c
iter:   2 09:25:33 -5054.559543        c -0.94
iter:   3 09:26:55  -569.585665        c -0.40
iter:   4 09:28:15  -463.438495        c -1.29
iter:   5 09:29:38  -475.150345        c -1.42
iter:   6 09:30:55  -456.147548        c -1.48
iter:   7 09:32:21  -484.760153        c -1.41
iter:   8 09:33:47  -449.931414        c -1.40
iter:   9 09:35:12  -424.065984        c -1.53
iter:  10 09:36:40  -411.437821        c -1.62
iter:  11 09:38:04  -415.352015        c -1.65
iter:  12 09:39:32  -423.440970        c -1.68
iter:  13 09:40:51  -408.211541        c -1.52
iter:  14 09:42:09  -410.946493        c -1.70
iter:  15 09:43:26  -407.098256        c -1.76
iter:  16 09:44:41  -421.318629        c -1.75
iter:  17 09:45:56  -403.978776        c -1.65
iter:  18 09:47:11  -409.089989        c -1.88
iter:  19 09:48:27  -406.348799        c -1.85
iter:  20 09:49:42  -431.551690        c -1.76
iter:  21 09:50:57  -407.511647        c -1.63
iter:  22 09:52:12  -404.479089        c -1.84
iter:  23 09:53:38  -409.884574        c -1.94
iter:  24 09:55:04  -405.856625        c -1.80
iter:  25 09:56:36  -406.035479        c -1.86
iter:  26 09:58:01  -427.418629        c -1.87
iter:  27 09:59:41  -437.336771        c -1.66
iter:  28 10:01:04  -414.058554        c -1.53
iter:  29 10:02:19  -407.567341        c -1.83
iter:  30 10:03:34  -406.808134        c -1.85
iter:  31 10:04:48  -405.169118        c -1.96
iter:  32 10:06:03  -419.952002        c -1.90
iter:  33 10:07:21  -487.998740        c -1.72
iter:  34 10:08:36  -407.006675        c -1.28
iter:  35 10:09:50  -401.499674        c -1.89
iter:  36 10:11:07  -401.863996        c -2.09
iter:  37 10:12:22  -402.410302        c -2.06
iter:  38 10:13:39  -399.385422        c -2.01
iter:  39 10:14:56  -401.815918        c -2.30
iter:  40 10:16:16  -400.755207        c -2.02
iter:  41 10:17:33  -400.402564        c -2.11
iter:  42 10:18:49  -400.611792        c -2.17
iter:  43 10:20:05  -401.453095        c -2.23
iter:  44 10:21:26  -399.460969        c -2.08
iter:  45 10:22:43  -400.321672        c -2.40
iter:  46 10:24:05  -399.105425        c -2.21
iter:  47 10:25:22  -399.408601        c -2.54
iter:  48 10:26:41  -398.844811        c -2.52
iter:  49 10:27:57  -399.012458        c -2.79
iter:  50 10:29:14  -398.820321        c -2.50
iter:  51 10:30:31  -398.819971        c -2.68
iter:  52 10:31:50  -398.760800        c -2.84
iter:  53 10:33:07  -398.775902        c -3.01
iter:  54 10:34:24  -398.733441        c -2.88
iter:  55 10:35:38  -398.746649        c -3.15
iter:  56 10:36:56  -398.762959        c -3.04
iter:  57 10:38:13  -398.721637        c -3.07
iter:  58 10:39:30  -398.733302        c -3.25
iter:  59 10:40:50  -398.765160        c -3.21
iter:  60 10:42:09  -398.748550        c -2.98
iter:  61 10:43:26  -398.735304        c -2.95
iter:  62 10:44:43  -398.712614        c -3.27
iter:  63 10:46:02  -398.713877        c -3.46
iter:  64 10:47:20  -398.713669c       c -3.30
iter:  65 10:48:37  -398.717966c       c -3.44
iter:  66 10:49:59  -398.714874c       c -3.47
iter:  67 10:51:19  -398.709202        c -3.51
iter:  68 10:52:36  -398.709539c       c -3.88
iter:  69 10:53:58  -398.710575c       c -3.95
iter:  70 10:55:15  -398.709444c       c -4.00
iter:  71 10:56:34  -398.708699c       c -4.05c

Converged after 71 iterations.

Dipole moment: (-7.891209, -7.891209, 0.388869) |e|*Ang

Energy contributions relative to reference atoms: (reference = -2536257.549247)

Kinetic:        +89.255374
Potential:      -64.297219
External:        +0.000000
XC:            -420.240189
Entropy (-ST):   -3.998529
Local:           -1.427399
SIC:             +0.000000
--------------------------
Free energy:   -400.707963
Extrapolated:  -398.708699

Showing only first 2 kpts
 Kpt  Band  Eigenvalues  Occupancy
  0   382      0.87594    1.29996
  0   383      0.88617    1.25270
  0   384      0.89708    1.20099
  0   385      0.90297    1.17258

  1   382      0.86808    1.33529
  1   383      0.87681    1.29600
  1   384      0.90222    1.17621
  1   385      0.90271    1.17383


Fermi level: 0.93783

No gap
No difference between direct/indirect transitions
Timing:                              incl.     excl.
-----------------------------------------------------------
Basic WFS set positions:             0.001     0.001   0.0% |
Basis functions set positions:       0.190     0.190   0.0% |
LCAO WFS Initialize:                 0.430     0.098   0.0% |
 Hamiltonian:                        0.331     0.000   0.0% |
  Atomic:                            0.170     0.002   0.0% |
   XC Correction:                    0.168     0.168   0.0% |
  Calculate atomic Hamiltonians:     0.027     0.027   0.0% |
  Communicate:                       0.000     0.000   0.0% |
  Hartree integrate/restrict:        0.008     0.008   0.0% |
  Initialize Hamiltonian:            0.001     0.001   0.0% |
  Poisson:                           0.079     0.006   0.0% |
   Communicate from 1D:              0.008     0.008   0.0% |
   Communicate from 2D:              0.006     0.006   0.0% |
   Communicate to 1D:                0.008     0.008   0.0% |
   Communicate to 2D:                0.012     0.012   0.0% |
   FFT 1D:                           0.008     0.008   0.0% |
   FFT 2D:                           0.031     0.031   0.0% |
  XC 3D grid:                        0.045     0.045   0.0% |
  vbar:                              0.001     0.001   0.0% |
P tci:                               4.378     4.378   0.1% |
SCF-cycle:                        5565.759     0.204   0.0% |
 Density:                         4072.502     0.001   0.0% |
  Atomic density matrices:           1.160     1.160   0.0% |
  Mix:                               8.404     8.404   0.2% |
  Multipole moments:                 0.021     0.021   0.0% |
  Normalize:                         0.008     0.008   0.0% |
  Pseudo density:                 4062.907     0.277   0.0% |
   Calculate density matrix:        10.890    10.890   0.2% |
   Construct density:             4051.471  4051.471  72.6% |----------------------------|
   Symmetrize density:               0.269     0.269   0.0% |
 Hamiltonian:                       24.414     0.003   0.0% |
  Atomic:                           11.672     0.131   0.0% |
   XC Correction:                   11.541    11.541   0.2% |
  Calculate atomic Hamiltonians:     1.913     1.913   0.0% |
  Communicate:                       0.000     0.000   0.0% |
  Hartree integrate/restrict:        0.458     0.458   0.0% |
  Poisson:                           5.481     0.424   0.0% |
   Communicate from 1D:              0.567     0.567   0.0% |
   Communicate from 2D:              0.426     0.426   0.0% |
   Communicate to 1D:                0.725     0.725   0.0% |
   Communicate to 2D:                0.698     0.698   0.0% |
   FFT 1D:                           0.555     0.555   0.0% |
   FFT 2D:                           2.086     2.086   0.0% |
  XC 3D grid:                        4.286     4.286   0.1% |
  vbar:                              0.601     0.601   0.0% |
 LCAO eigensolver:                1468.640     1.805   0.0% |
  Calculate projections:            49.976    49.976   0.9% |
  DenseAtomicCorrection:           203.467   203.467   3.6% ||
  Distribute overlap matrix:         3.216     3.216   0.1% |
  Orbital Layouts:                 290.684   290.684   5.2% |-|
  Potential matrix:                844.151   844.151  15.1% |-----|
  Sum over cells:                   75.342    75.342   1.4% ||
ST tci:                              2.130     2.130   0.0% |
Set symmetry:                        0.000     0.000   0.0% |
TCI: Evaluate splines:               0.337     0.337   0.0% |
mktci:                               0.028     0.028   0.0% |
Other:                               4.449     4.449   0.1% |
-----------------------------------------------------------
Total:                                      5577.701 100.0%

Memory usage: 4.49 GiB
Date: Mon Feb 23 10:56:34 2026
