
  ___ ___ ___ _ _ _  
 |   |   |_  | | | | 
 | | | | | . | | | | 
 |__ |  _|___|_____|  25.7.0
 |___|_|             

User:   mikei@Z790-AORUS-ELITE-AX
Date:   Mon Feb 23 10:56:34 2026
Arch:   x86_64
Pid:    89048
CWD:    /home/mikei/Dokumenty/code/cemea/ocx
Python: 3.10.16
gpaw:   /home/mikei/.pyenv/versions/cemea-env/lib/python3.10/site-packages/gpaw
_gpaw:  /home/mikei/.pyenv/versions/cemea-env/lib/python3.10/site-packages/
        _gpaw.cpython-310-x86_64-linux-gnu.so
ase:    /home/mikei/.pyenv/versions/cemea-env/lib/python3.10/site-packages/ase (version 3.27.0)
numpy:  /home/mikei/.pyenv/versions/cemea-env/lib/python3.10/site-packages/numpy (version 2.2.6)
scipy:  /home/mikei/.pyenv/versions/cemea-env/lib/python3.10/site-packages/scipy (version 1.15.3)
libxc:  2.x.y
units:  Angstrom and eV
cores: 1
OpenMP: False
OMP_NUM_THREADS: 1

Input parameters:
  basis: dzp
  convergence: {density: 0.0001,
                eigenstates: 1e-05,
                energy: 1e-05}
  kpts: [4 4 1]
  mode: lcao

System changes: positions, numbers, cell, pbc, initial_charges, initial_magmoms 

Initialize ...

species:
  Ni:
    name: Nickel
    id: 1802175e8de9ea26d9f4394ec1a7d564
    Z: 28.0
    valence: 16
    core: 12
    charge: 0.0
    file: /home/mikei/.pyenv/versions/cemea-env/lib/python3.10/site-packages/gpaw_data/setups/Ni.LDA.gz
    compensation charges: {type: gauss,
                           rc: 0.36,
                           lmax: 2}
    cutoffs: {filter: 2.14,
              core: 1.98}
    projectors:
      #              energy  rcut
      - 4s(2.00)    -5.858   1.164
      - 3p(6.00)   -71.266   1.207
      - 4p(0.00)    -1.338   1.207
      - 3d(8.00)    -9.141   1.138
      -  s          21.353   1.164
      -  d          18.071   1.138
  
    # LCAO basis set for Ni:
    #   Name: dzp
    #   File: /home/mikei/.pyenv/versions/cemea-env/lib/python3.10/site-packages/gpaw_data/setups/Ni.dzp.basis.gz
    #   Number of radial functions: 9
    #   Number of spherical harmonics: 27
    #     l=0, rc=8.5156 Bohr: 4s-sz confined orbital
    #     l=1, rc=2.9375 Bohr: 3p-sz confined orbital
    #     l=1, rc=12.4062 Bohr: 4p-sz confined orbital
    #     l=2, rc=4.6875 Bohr: 3d-sz confined orbital
    #     l=0, rc=4.9688 Bohr: 4s-dz split-valence wave
    #     l=1, rc=2.0781 Bohr: 3p-dz split-valence wave
    #     l=1, rc=7.5469 Bohr: 4p-dz split-valence wave
    #     l=2, rc=2.9375 Bohr: 3d-dz split-valence wave
    #     l=1, rc=8.5156 Bohr: p-type Gaussian polarization
    #   Number of RI-basis functions 0

  Mo:
    name: Molybdenum
    id: ac24daaf086600a00ce6d19a74574df1
    Z: 42.0
    valence: 14
    core: 28
    charge: 0.0
    file: /home/mikei/.pyenv/versions/cemea-env/lib/python3.10/site-packages/gpaw_data/setups/Mo.LDA.gz
    compensation charges: {type: gauss,
                           rc: 0.38,
                           lmax: 2}
    cutoffs: {filter: 2.16,
              core: 1.42}
    projectors:
      #              energy  rcut
      - 4s(2.00)   -64.384   1.238
      - 5s(1.00)    -4.319   1.238
      - 4p(6.00)   -38.595   1.296
      - 5p(0.00)    -1.161   1.296
      - 4d(5.00)    -3.933   1.296
      -  d          23.278   1.296
  
    # LCAO basis set for Mo:
    #   Name: dzp
    #   File: /home/mikei/.pyenv/versions/cemea-env/lib/python3.10/site-packages/gpaw_data/setups/Mo.dzp.basis.gz
    #   Number of radial functions: 11
    #   Number of spherical harmonics: 29
    #     l=0, rc=3.5469 Bohr: 4s-sz confined orbital
    #     l=0, rc=10.0469 Bohr: 5s-sz confined orbital
    #     l=1, rc=4.0781 Bohr: 4p-sz confined orbital
    #     l=1, rc=14.0938 Bohr: 5p-sz confined orbital
    #     l=2, rc=7.2031 Bohr: 4d-sz confined orbital
    #     l=0, rc=2.1250 Bohr: 4s-dz split-valence wave
    #     l=0, rc=6.1250 Bohr: 5s-dz split-valence wave
    #     l=1, rc=2.5469 Bohr: 4p-dz split-valence wave
    #     l=1, rc=8.7656 Bohr: 5p-dz split-valence wave
    #     l=2, rc=4.2344 Bohr: 4d-dz split-valence wave
    #     l=1, rc=10.0469 Bohr: p-type Gaussian polarization
    #   Number of RI-basis functions 0

  C:
    name: Carbon
    id: d60576a1f549371a163e72552ca58787
    Z: 6.0
    valence: 4
    core: 2
    charge: 0.0
    file: /home/mikei/.pyenv/versions/cemea-env/lib/python3.10/site-packages/gpaw_data/setups/C.LDA.gz
    compensation charges: {type: gauss,
                           rc: 0.20,
                           lmax: 2}
    cutoffs: {filter: 1.14,
              core: 1.14}
    projectors:
      #              energy  rcut
      - 2s(2.00)   -13.639   0.635
      - 2p(2.00)    -5.414   0.635
      -  s          13.573   0.635
      -  p          21.797   0.635
      -  d           0.000   0.635
  
    # LCAO basis set for C:
    #   Name: dzp
    #   File: /home/mikei/.pyenv/versions/cemea-env/lib/python3.10/site-packages/gpaw_data/setups/C.dzp.basis.gz
    #   Number of radial functions: 5
    #   Number of spherical harmonics: 13
    #     l=0, rc=5.5469 Bohr: 2s-sz confined orbital
    #     l=1, rc=6.6719 Bohr: 2p-sz confined orbital
    #     l=0, rc=3.0312 Bohr: 2s-dz split-valence wave
    #     l=1, rc=3.7500 Bohr: 2p-dz split-valence wave
    #     l=2, rc=6.6719 Bohr: d-type Gaussian polarization
    #   Number of RI-basis functions 0

  H:
    name: Hydrogen
    id: 4766778ce56282eaa64abeb28b7c1de3
    Z: 1.0
    valence: 1
    core: 0
    charge: 0.0
    file: /home/mikei/.pyenv/versions/cemea-env/lib/python3.10/site-packages/gpaw_data/setups/H.LDA.gz
    compensation charges: {type: gauss,
                           rc: 0.15,
                           lmax: 2}
    cutoffs: {filter: 0.85,
              core: 0.53}
    projectors:
      #              energy  rcut
      - 1s(1.00)    -6.353   0.476
      -  s          20.858   0.476
      -  p           0.000   0.476
  
    # LCAO basis set for H:
    #   Name: dzp
    #   File: /home/mikei/.pyenv/versions/cemea-env/lib/python3.10/site-packages/gpaw_data/setups/H.dzp.basis.gz
    #   Number of radial functions: 3
    #   Number of spherical harmonics: 5
    #     l=0, rc=6.4219 Bohr: 1s-sz confined orbital
    #     l=0, rc=3.6094 Bohr: 1s-dz split-valence wave
    #     l=1, rc=6.4219 Bohr: p-type Gaussian polarization
    #   Number of RI-basis functions 0

Reference energy: -2536269.678205  # eV

Spin-paired calculation

Convergence criteria:
 Maximum [total energy] change in last 3 cyles: 1e-05 eV / valence electron
 Maximum integral of absolute [dens]ity change: 0.0001 electrons / valence electron
 Maximum integral of absolute [eigenst]ate change: 1e-05 eV^2 / valence electron
 Maximum number of scf [iter]ations: 333
 (Square brackets indicate name in SCF output, whereas a 'c' in
 the SCF output indicates the quantity has converged.)

Symmetries present (total): 2

  ( 1  0  0)  ( 0  1  0)
  ( 0  1  0)  ( 1  0  0)
  ( 0  0  1)  ( 0  0  1)

16 k-points: 4 x 4 x 1 Monkhorst-Pack grid
6 k-points in the irreducible part of the Brillouin zone
       k-points in crystal coordinates                weights
   0:     0.12500000   -0.12500000    0.00000000          2/16
   1:     0.12500000    0.12500000    0.00000000          2/16
   2:     0.37500000   -0.37500000    0.00000000          2/16
   3:     0.37500000   -0.12500000    0.00000000          4/16
   4:     0.37500000    0.12500000    0.00000000          4/16
   5:     0.37500000    0.37500000    0.00000000          2/16

Wave functions: LCAO
  Diagonalizer: Serial LAPACK
  Atomic Correction: dense with blas
  Data-type: complex
 

Occupation numbers: Fermi-Dirac:
  width: 0.1000  # eV
 

Eigensolver
   LCAO using direct dense diagonalizer 

Densities:
  Coarse grid: 36*36*128 grid
  Fine grid: 72*72*256 grid
  Total Charge: 0.000000 

Density mixing:
  Method: separate
  Backend: pulay
  Linear mixing parameter: 0.05
  old densities: 5
  Damping of long wavelength oscillations: 50 

Hamiltonian:
  XC and Coulomb potentials evaluated on a 72*72*256 grid
  Using the LDA Exchange-Correlation functional
  Interpolation: tri-quintic (5. degree polynomial)
  Poisson solver: FastPoissonSolver using
    Stencil: 6*3+1=19 point O(h^6) finite-difference Laplacian
    FFT axes: [np.int64(0), np.int64(1), np.int64(2)]
    FST axes: []
 

Memory estimate:
  Process memory now: 4595.48 MiB
  Calculator: 993.19 MiB
    Density: 237.28 MiB
      Arrays: 32.91 MiB
      Localized functions: 191.72 MiB
      Mixer: 12.66 MiB
    Hamiltonian: 35.78 MiB
      Arrays: 21.52 MiB
      XC: 0.00 MiB
      Poisson: 0.00 MiB
      vbar: 14.27 MiB
    Wavefunctions: 720.12 MiB
      C [qnM]: 58.41 MiB
      S, T [2 x qmm]: 343.17 MiB
      P [aqMi]: 7.21 MiB
      BasisFunctions: 311.33 MiB
      Eigensolver: 0.00 MiB

Total number of cores used: 1

Number of atoms: 53
Number of atomic orbitals: 1369
Number of bands in calculation: 466
Number of valence electrons: 769
Bands to converge: occupied

... initialized

Initializing position-dependent things.

Density initialized from atomic densities
      .-----------------.  
     /|                 |  
    / |                 |  
   /  |                 |  
  /   |                 |  
 *    |                 |  
 |    |                 |  
 |    |                 |  
 |    |                 |  
 |    |    H            |  
 |    |  Ni    Ni       |  
 |    |Ni Mo Ni     Mo  |  
 |    |                 |  
 |    |Mo C      Mo C   |  
 |  Mo|       Mo        |  
 |    |                 |  
 |    |C         C      |  
 Mo Ni|   NMo   Ni      |  
 | Ni | NNi   NNi   Ni  |  
 |    |                 |  
 Ni   NNi   NNi   Ni    |  
 |  NNi   NNi   NNi     |  
 | Ni | NNi   NNi   Ni  |  
 |    |                 |  
 Ni   NNi   NNi   Ni    |  
 |   Ni    Ni    Ni     |  
 |    |                 |  
 |    |                 |  
 |    |                 |  
 |    |                 |  
 |    |                 |  
 |    .-----------------.  
 |   /                 /   
 |  /                 /    
 | /                 /     
 |/                 /      
 *-----------------*       

Atomic positions and initial magnetic moments

Positions:
   0 Ni     1.244508    1.244508    8.000000    ( 0.0000,  0.0000,  0.0000)
   1 Ni     3.733524    1.244508    8.000000    ( 0.0000,  0.0000,  0.0000)
   2 Ni     6.222540    1.244508    8.000000    ( 0.0000,  0.0000,  0.0000)
   3 Ni     1.244508    3.733524    8.000000    ( 0.0000,  0.0000,  0.0000)
   4 Ni     3.733524    3.733524    8.000000    ( 0.0000,  0.0000,  0.0000)
   5 Ni     6.222540    3.733524    8.000000    ( 0.0000,  0.0000,  0.0000)
   6 Ni     1.244508    6.222540    8.000000    ( 0.0000,  0.0000,  0.0000)
   7 Ni     3.733524    6.222540    8.000000    ( 0.0000,  0.0000,  0.0000)
   8 Ni     6.222540    6.222540    8.000000    ( 0.0000,  0.0000,  0.0000)
   9 Ni     0.000000    0.000000    9.760000    ( 0.0000,  0.0000,  0.0000)
  10 Ni     2.489016    0.000000    9.760000    ( 0.0000,  0.0000,  0.0000)
  11 Ni     4.978032    0.000000    9.760000    ( 0.0000,  0.0000,  0.0000)
  12 Ni     0.000000    2.489016    9.760000    ( 0.0000,  0.0000,  0.0000)
  13 Ni     2.489016    2.489016    9.760000    ( 0.0000,  0.0000,  0.0000)
  14 Ni     4.978032    2.489016    9.760000    ( 0.0000,  0.0000,  0.0000)
  15 Ni     0.000000    4.978032    9.760000    ( 0.0000,  0.0000,  0.0000)
  16 Ni     2.489016    4.978032    9.760000    ( 0.0000,  0.0000,  0.0000)
  17 Ni     4.978032    4.978032    9.760000    ( 0.0000,  0.0000,  0.0000)
  18 Ni     1.244508    1.244508   11.520000    ( 0.0000,  0.0000,  0.0000)
  19 Ni     3.733524    1.244508   11.520000    ( 0.0000,  0.0000,  0.0000)
  20 Ni     6.222540    1.244508   11.520000    ( 0.0000,  0.0000,  0.0000)
  21 Ni     1.244508    3.733524   11.520000    ( 0.0000,  0.0000,  0.0000)
  22 Ni     3.733524    3.733524   11.520000    ( 0.0000,  0.0000,  0.0000)
  23 Ni     6.222540    3.733524   11.520000    ( 0.0000,  0.0000,  0.0000)
  24 Ni     1.244508    6.222540   11.520000    ( 0.0000,  0.0000,  0.0000)
  25 Ni     3.733524    6.222540   11.520000    ( 0.0000,  0.0000,  0.0000)
  26 Ni     6.222540    6.222540   11.520000    ( 0.0000,  0.0000,  0.0000)
  27 Ni     0.000000    0.000000   13.280000    ( 0.0000,  0.0000,  0.0000)
  28 Ni     2.489016    0.000000   13.280000    ( 0.0000,  0.0000,  0.0000)
  29 Ni     4.978032    0.000000   13.280000    ( 0.0000,  0.0000,  0.0000)
  30 Ni     0.000000    2.489016   13.280000    ( 0.0000,  0.0000,  0.0000)
  31 Ni     2.489016    2.489016   13.280000    ( 0.0000,  0.0000,  0.0000)
  32 Ni     4.978032    2.489016   13.280000    ( 0.0000,  0.0000,  0.0000)
  33 Ni     0.000000    4.978032   13.280000    ( 0.0000,  0.0000,  0.0000)
  34 Ni     2.489016    4.978032   13.280000    ( 0.0000,  0.0000,  0.0000)
  35 Ni     4.978032    4.978032   13.280000    ( 0.0000,  0.0000,  0.0000)
  36 Mo     0.000000    0.000000   15.480000    ( 0.0000,  0.0000,  0.0000)
  37 Mo     2.060000    2.060000   17.540000    ( 0.0000,  0.0000,  0.0000)
  38 C      2.060000    2.060000   15.480000    ( 0.0000,  0.0000,  0.0000)
  39 Mo     0.000000    4.120000   15.480000    ( 0.0000,  0.0000,  0.0000)
  40 Mo     2.060000    6.180000   17.540000    ( 0.0000,  0.0000,  0.0000)
  41 C      2.060000    6.180000   15.480000    ( 0.0000,  0.0000,  0.0000)
  42 Mo     4.120000    0.000000   15.480000    ( 0.0000,  0.0000,  0.0000)
  43 Mo     6.180000    2.060000   17.540000    ( 0.0000,  0.0000,  0.0000)
  44 C      6.180000    2.060000   15.480000    ( 0.0000,  0.0000,  0.0000)
  45 Mo     4.120000    4.120000   15.480000    ( 0.0000,  0.0000,  0.0000)
  46 Mo     6.180000    6.180000   17.540000    ( 0.0000,  0.0000,  0.0000)
  47 C      6.180000    6.180000   15.480000    ( 0.0000,  0.0000,  0.0000)
  48 Ni     1.991786    1.991786   19.340000    ( 0.0000,  0.0000,  0.0000)
  49 Ni     1.991786    4.391786   19.340000    ( 0.0000,  0.0000,  0.0000)
  50 Ni     4.391786    1.991786   19.340000    ( 0.0000,  0.0000,  0.0000)
  51 Ni     4.391786    4.391786   19.340000    ( 0.0000,  0.0000,  0.0000)
  52 H      3.191786    3.191786   20.840000    ( 0.0000,  0.0000,  0.0000)

Unit cell:
           periodic     x           y           z      points  spacing
  1. axis:    yes    7.467048    0.000000    0.000000    36     0.2074
  2. axis:    yes    0.000000    7.467048    0.000000    36     0.2074
  3. axis:    yes    0.000000    0.000000   25.540000   128     0.1995

  Lengths:   7.467048   7.467048  25.540000
  Angles:   90.000000  90.000000  90.000000

Effective grid spacing dv^(1/3) = 0.2048

     iter     time        total  log10-change:
                         energy   eigst   dens
iter:   1 10:57:05 -1044.264014        c
iter:   2 10:58:22 -5276.198560        c -0.93
iter:   3 10:59:43  -562.193175        c -0.39
iter:   4 11:01:09  -463.990351        c -1.31
iter:   5 11:02:27  -506.481108        c -1.44
iter:   6 11:03:45  -438.643868        c -1.45
iter:   7 11:05:07  -458.632881        c -1.51
iter:   8 11:06:25  -445.271582        c -1.40
iter:   9 11:07:44  -461.468551        c -1.49
iter:  10 11:09:00  -422.108672        c -1.37
iter:  11 11:10:18  -426.340757        c -1.66
iter:  12 11:11:38  -434.749550        c -1.66
iter:  13 11:12:57  -412.035628        c -1.59
iter:  14 11:14:22  -421.229012        c -1.72
iter:  15 11:15:41  -414.515534        c -1.72
iter:  16 11:17:06  -415.653278        c -1.68
iter:  17 11:18:29  -417.084669        c -1.69
iter:  18 11:19:46  -410.122523        c -1.70
iter:  19 11:21:01  -413.584077        c -1.80
iter:  20 11:22:21  -405.823370        c -1.80
iter:  21 11:23:38  -406.479378        c -1.90
iter:  22 11:24:53  -439.936829        c -1.90
iter:  23 11:26:10  -414.893923        c -1.60
iter:  24 11:27:25  -409.937799        c -1.83
iter:  25 11:28:45  -404.447764        c -1.93
iter:  26 11:29:59  -403.977140        c -2.08
iter:  27 11:31:14  -405.375615        c -2.17
iter:  28 11:32:29  -402.622412        c -1.92
iter:  29 11:33:44  -413.098695        c -2.30
iter:  30 11:34:58  -405.134335        c -1.83
iter:  31 11:36:13  -404.859236        c -2.06
iter:  32 11:37:29  -403.182916        c -2.02
iter:  33 11:38:48  -404.459047        c -2.16
iter:  34 11:40:03  -402.131702        c -2.07
iter:  35 11:41:21  -402.203301        c -2.51
iter:  36 11:42:40  -402.255619        c -2.44
iter:  37 11:44:00  -402.182299        c -2.53
iter:  38 11:45:20  -401.951520        c -2.47
iter:  39 11:46:35  -401.983151        c -2.71
iter:  40 11:47:53  -401.852584        c -2.66
iter:  41 11:49:08  -402.232681        c -2.93
iter:  42 11:50:24  -401.855351        c -2.49
iter:  43 11:51:39  -401.936598        c -3.00
iter:  44 11:52:57  -401.860094        c -2.82
iter:  45 11:54:16  -401.837118        c -2.85
iter:  46 11:55:31  -401.830487        c -3.13
iter:  47 11:56:46  -401.870749        c -3.12
iter:  48 11:58:01  -401.809910        c -3.02
iter:  49 11:59:17  -401.810267        c -3.38
iter:  50 12:00:37  -401.806866c       c -3.20
iter:  51 12:01:52  -401.805563c       c -3.30
iter:  52 12:03:07  -401.802143c       c -3.71
iter:  53 12:04:21  -401.806192c       c -3.61
iter:  54 12:05:36  -401.802871c       c -3.36
iter:  55 12:06:51  -401.804219c       c -3.55
iter:  56 12:08:08  -401.801614c       c -3.88
iter:  57 12:09:24  -401.801627c       c -3.72
iter:  58 12:10:38  -401.802508c       c -3.60
iter:  59 12:11:53  -401.802020c       c -3.65
iter:  60 12:13:07  -401.801538c       c -3.95
iter:  61 12:14:30  -401.804824c       c -3.92
iter:  62 12:15:47  -401.802427c       c -4.03c

Converged after 62 iterations.

Dipole moment: (-7.874927, -7.874927, 0.252024) |e|*Ang

Energy contributions relative to reference atoms: (reference = -2536269.678205)

Kinetic:        +87.208947
Potential:      -62.983930
External:        +0.000000
XC:            -422.402991
Entropy (-ST):   -4.004763
Local:           -1.622072
SIC:             +0.000000
--------------------------
Free energy:   -403.804809
Extrapolated:  -401.802427

Showing only first 2 kpts
 Kpt  Band  Eigenvalues  Occupancy
  0   382      0.84267    1.31401
  0   383      0.84854    1.28732
  0   384      0.85366    1.26367
  0   385      0.86768    1.19734

  1   382      0.83677    1.34034
  1   383      0.84666    1.29592
  1   384      0.86041    1.23202
  1   385      0.86984    1.18691


Fermi level: 0.90767

No gap
No difference between direct/indirect transitions
Timing:                              incl.     excl.
-----------------------------------------------------------
Basic WFS set positions:             0.001     0.001   0.0% |
Basis functions set positions:       0.192     0.192   0.0% |
LCAO WFS Initialize:                 0.416     0.093   0.0% |
 Hamiltonian:                        0.324     0.000   0.0% |
  Atomic:                            0.166     0.002   0.0% |
   XC Correction:                    0.164     0.164   0.0% |
  Calculate atomic Hamiltonians:     0.027     0.027   0.0% |
  Communicate:                       0.000     0.000   0.0% |
  Hartree integrate/restrict:        0.006     0.006   0.0% |
  Initialize Hamiltonian:            0.001     0.001   0.0% |
  Poisson:                           0.077     0.006   0.0% |
   Communicate from 1D:              0.008     0.008   0.0% |
   Communicate from 2D:              0.006     0.006   0.0% |
   Communicate to 1D:                0.010     0.010   0.0% |
   Communicate to 2D:                0.012     0.012   0.0% |
   FFT 1D:                           0.008     0.008   0.0% |
   FFT 2D:                           0.028     0.028   0.0% |
  XC 3D grid:                        0.045     0.045   0.0% |
  vbar:                              0.001     0.001   0.0% |
P tci:                               4.406     4.406   0.1% |
SCF-cycle:                        4740.915     0.162   0.0% |
 Density:                         3465.173     0.001   0.0% |
  Atomic density matrices:           0.992     0.992   0.0% |
  Mix:                               6.774     6.774   0.1% |
  Multipole moments:                 0.019     0.019   0.0% |
  Normalize:                         0.007     0.007   0.0% |
  Pseudo density:                 3457.379     0.235   0.0% |
   Calculate density matrix:         9.060     9.060   0.2% |
   Construct density:             3447.852  3447.852  72.5% |----------------------------|
   Symmetrize density:               0.233     0.233   0.0% |
 Hamiltonian:                       20.856     0.003   0.0% |
  Atomic:                           10.166     0.114   0.0% |
   XC Correction:                   10.052    10.052   0.2% |
  Calculate atomic Hamiltonians:     1.647     1.647   0.0% |
  Communicate:                       0.000     0.000   0.0% |
  Hartree integrate/restrict:        0.364     0.364   0.0% |
  Poisson:                           4.627     0.353   0.0% |
   Communicate from 1D:              0.491     0.491   0.0% |
   Communicate from 2D:              0.368     0.368   0.0% |
   Communicate to 1D:                0.629     0.629   0.0% |
   Communicate to 2D:                0.620     0.620   0.0% |
   FFT 1D:                           0.488     0.488   0.0% |
   FFT 2D:                           1.678     1.678   0.0% |
  XC 3D grid:                        3.566     3.566   0.1% |
  vbar:                              0.483     0.483   0.0% |
 LCAO eigensolver:                1254.724     1.605   0.0% |
  Calculate projections:            40.799    40.799   0.9% |
  DenseAtomicCorrection:           170.051   170.051   3.6% ||
  Distribute overlap matrix:         3.503     3.503   0.1% |
  Orbital Layouts:                 260.813   260.813   5.5% |-|
  Potential matrix:                712.992   712.992  15.0% |-----|
  Sum over cells:                   64.961    64.961   1.4% ||
ST tci:                              2.102     2.102   0.0% |
Set symmetry:                        0.000     0.000   0.0% |
TCI: Evaluate splines:               0.391     0.391   0.0% |
mktci:                               0.029     0.029   0.0% |
Other:                               4.259     4.259   0.1% |
-----------------------------------------------------------
Total:                                      4752.712 100.0%

Memory usage: 4.49 GiB
Date: Mon Feb 23 12:15:47 2026
