
  ___ ___ ___ _ _ _  
 |   |   |_  | | | | 
 | | | | | . | | | | 
 |__ |  _|___|_____|  25.7.0
 |___|_|             

User:   mikei@Z790-AORUS-ELITE-AX
Date:   Mon Mar  2 22:13:15 2026
Arch:   x86_64
Pid:    89048
CWD:    /home/mikei/Dokumenty/code/cemea/ocx
Python: 3.10.16
gpaw:   /home/mikei/.pyenv/versions/cemea-env/lib/python3.10/site-packages/gpaw
_gpaw:  /home/mikei/.pyenv/versions/cemea-env/lib/python3.10/site-packages/
        _gpaw.cpython-310-x86_64-linux-gnu.so
ase:    /home/mikei/.pyenv/versions/cemea-env/lib/python3.10/site-packages/ase (version 3.27.0)
numpy:  /home/mikei/.pyenv/versions/cemea-env/lib/python3.10/site-packages/numpy (version 2.2.6)
scipy:  /home/mikei/.pyenv/versions/cemea-env/lib/python3.10/site-packages/scipy (version 1.15.3)
libxc:  2.x.y
units:  Angstrom and eV
cores: 1
OpenMP: False
OMP_NUM_THREADS: 1

Input parameters:
  basis: dzp
  convergence: {density: 0.0001,
                eigenstates: 1e-05,
                energy: 1e-05}
  kpts: [4 4 1]
  mode: lcao

System changes: positions, numbers, cell, pbc, initial_charges, initial_magmoms 

Initialize ...

species:
  Ni:
    name: Nickel
    id: 1802175e8de9ea26d9f4394ec1a7d564
    Z: 28.0
    valence: 16
    core: 12
    charge: 0.0
    file: /home/mikei/.pyenv/versions/cemea-env/lib/python3.10/site-packages/gpaw_data/setups/Ni.LDA.gz
    compensation charges: {type: gauss,
                           rc: 0.36,
                           lmax: 2}
    cutoffs: {filter: 2.14,
              core: 1.98}
    projectors:
      #              energy  rcut
      - 4s(2.00)    -5.858   1.164
      - 3p(6.00)   -71.266   1.207
      - 4p(0.00)    -1.338   1.207
      - 3d(8.00)    -9.141   1.138
      -  s          21.353   1.164
      -  d          18.071   1.138
  
    # LCAO basis set for Ni:
    #   Name: dzp
    #   File: /home/mikei/.pyenv/versions/cemea-env/lib/python3.10/site-packages/gpaw_data/setups/Ni.dzp.basis.gz
    #   Number of radial functions: 9
    #   Number of spherical harmonics: 27
    #     l=0, rc=8.5156 Bohr: 4s-sz confined orbital
    #     l=1, rc=2.9375 Bohr: 3p-sz confined orbital
    #     l=1, rc=12.4062 Bohr: 4p-sz confined orbital
    #     l=2, rc=4.6875 Bohr: 3d-sz confined orbital
    #     l=0, rc=4.9688 Bohr: 4s-dz split-valence wave
    #     l=1, rc=2.0781 Bohr: 3p-dz split-valence wave
    #     l=1, rc=7.5469 Bohr: 4p-dz split-valence wave
    #     l=2, rc=2.9375 Bohr: 3d-dz split-valence wave
    #     l=1, rc=8.5156 Bohr: p-type Gaussian polarization
    #   Number of RI-basis functions 0

  Mo:
    name: Molybdenum
    id: ac24daaf086600a00ce6d19a74574df1
    Z: 42.0
    valence: 14
    core: 28
    charge: 0.0
    file: /home/mikei/.pyenv/versions/cemea-env/lib/python3.10/site-packages/gpaw_data/setups/Mo.LDA.gz
    compensation charges: {type: gauss,
                           rc: 0.38,
                           lmax: 2}
    cutoffs: {filter: 2.16,
              core: 1.42}
    projectors:
      #              energy  rcut
      - 4s(2.00)   -64.384   1.238
      - 5s(1.00)    -4.319   1.238
      - 4p(6.00)   -38.595   1.296
      - 5p(0.00)    -1.161   1.296
      - 4d(5.00)    -3.933   1.296
      -  d          23.278   1.296
  
    # LCAO basis set for Mo:
    #   Name: dzp
    #   File: /home/mikei/.pyenv/versions/cemea-env/lib/python3.10/site-packages/gpaw_data/setups/Mo.dzp.basis.gz
    #   Number of radial functions: 11
    #   Number of spherical harmonics: 29
    #     l=0, rc=3.5469 Bohr: 4s-sz confined orbital
    #     l=0, rc=10.0469 Bohr: 5s-sz confined orbital
    #     l=1, rc=4.0781 Bohr: 4p-sz confined orbital
    #     l=1, rc=14.0938 Bohr: 5p-sz confined orbital
    #     l=2, rc=7.2031 Bohr: 4d-sz confined orbital
    #     l=0, rc=2.1250 Bohr: 4s-dz split-valence wave
    #     l=0, rc=6.1250 Bohr: 5s-dz split-valence wave
    #     l=1, rc=2.5469 Bohr: 4p-dz split-valence wave
    #     l=1, rc=8.7656 Bohr: 5p-dz split-valence wave
    #     l=2, rc=4.2344 Bohr: 4d-dz split-valence wave
    #     l=1, rc=10.0469 Bohr: p-type Gaussian polarization
    #   Number of RI-basis functions 0

  B:
    name: Boron
    id: 02e2e0e88ef95f403158802f6b0f4231
    Z: 5.0
    valence: 3
    core: 2
    charge: 0.0
    file: /home/mikei/.pyenv/versions/cemea-env/lib/python3.10/site-packages/gpaw_data/setups/B.LDA.gz
    compensation charges: {type: gauss,
                           rc: 0.20,
                           lmax: 2}
    cutoffs: {filter: 1.14,
              core: 1.42}
    projectors:
      #              energy  rcut
      - 2s(2.00)    -9.383   0.635
      - 2p(1.00)    -3.714   0.635
      -  s          17.828   0.635
      -  p          23.498   0.635
      -  d           0.000   0.635
  
    # LCAO basis set for B:
    #   Name: dzp
    #   File: /home/mikei/.pyenv/versions/cemea-env/lib/python3.10/site-packages/gpaw_data/setups/B.dzp.basis.gz
    #   Number of radial functions: 5
    #   Number of spherical harmonics: 13
    #     l=0, rc=6.6719 Bohr: 2s-sz confined orbital
    #     l=1, rc=8.2188 Bohr: 2p-sz confined orbital
    #     l=0, rc=3.7500 Bohr: 2s-dz split-valence wave
    #     l=1, rc=4.6094 Bohr: 2p-dz split-valence wave
    #     l=2, rc=8.2188 Bohr: d-type Gaussian polarization
    #   Number of RI-basis functions 0

  Au:
    name: Gold
    id: a44207148b704df7bec07bf25e8feca8
    Z: 79.0
    valence: 11
    core: 68
    charge: 0.0
    file: /home/mikei/.pyenv/versions/cemea-env/lib/python3.10/site-packages/gpaw_data/setups/Au.LDA.gz
    compensation charges: {type: gauss,
                           rc: 0.42,
                           lmax: 2}
    cutoffs: {filter: 2.33,
              core: 2.81}
    projectors:
      #              energy  rcut
      - 6s(1.00)    -6.048   1.323
      - 6p(0.00)    -0.888   1.323
      - 5d(10.00)    -7.129   1.323
      -  s          21.163   1.323
      -  p          26.323   1.323
      -  d          20.082   1.323
  
    # LCAO basis set for Au:
    #   Name: dzp
    #   File: /home/mikei/.pyenv/versions/cemea-env/lib/python3.10/site-packages/gpaw_data/setups/Au.dzp.basis.gz
    #   Number of radial functions: 5
    #   Number of spherical harmonics: 15
    #     l=0, rc=8.5938 Bohr: 6s-sz confined orbital
    #     l=2, rc=5.9219 Bohr: 5d-sz confined orbital
    #     l=0, rc=4.9844 Bohr: 6s-dz split-valence wave
    #     l=2, rc=3.5156 Bohr: 5d-dz split-valence wave
    #     l=1, rc=8.5938 Bohr: p-type Gaussian polarization
    #   Number of RI-basis functions 0

  H:
    name: Hydrogen
    id: 4766778ce56282eaa64abeb28b7c1de3
    Z: 1.0
    valence: 1
    core: 0
    charge: 0.0
    file: /home/mikei/.pyenv/versions/cemea-env/lib/python3.10/site-packages/gpaw_data/setups/H.LDA.gz
    compensation charges: {type: gauss,
                           rc: 0.15,
                           lmax: 2}
    cutoffs: {filter: 0.85,
              core: 0.53}
    projectors:
      #              energy  rcut
      - 1s(1.00)    -6.353   0.476
      -  s          20.858   0.476
      -  p           0.000   0.476
  
    # LCAO basis set for H:
    #   Name: dzp
    #   File: /home/mikei/.pyenv/versions/cemea-env/lib/python3.10/site-packages/gpaw_data/setups/H.dzp.basis.gz
    #   Number of radial functions: 3
    #   Number of spherical harmonics: 5
    #     l=0, rc=6.4219 Bohr: 1s-sz confined orbital
    #     l=0, rc=3.6094 Bohr: 1s-dz split-valence wave
    #     l=1, rc=6.4219 Bohr: p-type Gaussian polarization
    #   Number of RI-basis functions 0

Reference energy: -3994817.581302  # eV

Spin-paired calculation

Convergence criteria:
 Maximum [total energy] change in last 3 cyles: 1e-05 eV / valence electron
 Maximum integral of absolute [dens]ity change: 0.0001 electrons / valence electron
 Maximum integral of absolute [eigenst]ate change: 1e-05 eV^2 / valence electron
 Maximum number of scf [iter]ations: 333
 (Square brackets indicate name in SCF output, whereas a 'c' in
 the SCF output indicates the quantity has converged.)

Symmetries present (total): 2

  ( 1  0  0)  ( 0  1  0)
  ( 0  1  0)  ( 1  0  0)
  ( 0  0  1)  ( 0  0  1)

16 k-points: 4 x 4 x 1 Monkhorst-Pack grid
6 k-points in the irreducible part of the Brillouin zone
       k-points in crystal coordinates                weights
   0:     0.12500000   -0.12500000    0.00000000          2/16
   1:     0.12500000    0.12500000    0.00000000          2/16
   2:     0.37500000   -0.37500000    0.00000000          2/16
   3:     0.37500000   -0.12500000    0.00000000          4/16
   4:     0.37500000    0.12500000    0.00000000          4/16
   5:     0.37500000    0.37500000    0.00000000          2/16

Wave functions: LCAO
  Diagonalizer: Serial LAPACK
  Atomic Correction: dense with blas
  Data-type: complex
 

Occupation numbers: Fermi-Dirac:
  width: 0.1000  # eV
 

Eigensolver
   LCAO using direct dense diagonalizer 

Densities:
  Coarse grid: 36*36*124 grid
  Fine grid: 72*72*248 grid
  Total Charge: 0.000000 

Density mixing:
  Method: separate
  Backend: pulay
  Linear mixing parameter: 0.05
  old densities: 5
  Damping of long wavelength oscillations: 50 

Hamiltonian:
  XC and Coulomb potentials evaluated on a 72*72*248 grid
  Using the LDA Exchange-Correlation functional
  Interpolation: tri-quintic (5. degree polynomial)
  Poisson solver: FastPoissonSolver using
    Stencil: 6*3+1=19 point O(h^6) finite-difference Laplacian
    FFT axes: [np.int64(0), np.int64(1), np.int64(2)]
    FST axes: []
 

Memory estimate:
  Process memory now: 4818.40 MiB
  Calculator: 833.68 MiB
    Density: 220.28 MiB
      Arrays: 31.88 MiB
      Localized functions: 176.15 MiB
      Mixer: 12.26 MiB
    Hamiltonian: 34.11 MiB
      Arrays: 20.84 MiB
      XC: 0.00 MiB
      Poisson: 0.00 MiB
      vbar: 13.26 MiB
    Wavefunctions: 579.29 MiB
      C [qnM]: 46.11 MiB
      S, T [2 x qmm]: 265.87 MiB
      P [aqMi]: 5.85 MiB
      BasisFunctions: 261.45 MiB
      Eigensolver: 0.00 MiB

Total number of cores used: 1

Number of atoms: 49
Number of atomic orbitals: 1205
Number of bands in calculation: 418
Number of valence electrons: 689
Bands to converge: occupied

... initialized

Initializing position-dependent things.

Density initialized from atomic densities
      .-----------------.  
     /|                 |  
    / |                 |  
   /  |                 |  
  /   |                 |  
 *    |                 |  
 |    |                 |  
 |    |                 |  
 |    |                 |  
 |    |   H             |  
 |    | Au    Au        |  
 |    |                 |  
 |    AuB   Au B        |  
 |    |                 |  
 |    B      B          |  
 | Mo |   Mo            |  
 |  Ni|   Ni    Ni      |  
 Mo   | Mo              |  
 | Ni | NNi   NNi   Ni  |  
 |    Ni    Ni    Ni    |  
 Ni   |Ni    Ni         |  
 |  NNi   NNi   NNi     |  
 | Ni | NNi   NNi   Ni  |  
 |    |                 |  
 Ni   NNi   NNi   Ni    |  
 |   Ni    Ni    Ni     |  
 |    |                 |  
 |    |                 |  
 |    |                 |  
 |    |                 |  
 |    |                 |  
 |    .-----------------.  
 |   /                 /   
 |  /                 /    
 | /                 /     
 |/                 /      
 *-----------------*       

Atomic positions and initial magnetic moments

Positions:
   0 Ni     1.244508    1.244508    8.000000    ( 0.0000,  0.0000,  0.0000)
   1 Ni     3.733524    1.244508    8.000000    ( 0.0000,  0.0000,  0.0000)
   2 Ni     6.222540    1.244508    8.000000    ( 0.0000,  0.0000,  0.0000)
   3 Ni     1.244508    3.733524    8.000000    ( 0.0000,  0.0000,  0.0000)
   4 Ni     3.733524    3.733524    8.000000    ( 0.0000,  0.0000,  0.0000)
   5 Ni     6.222540    3.733524    8.000000    ( 0.0000,  0.0000,  0.0000)
   6 Ni     1.244508    6.222540    8.000000    ( 0.0000,  0.0000,  0.0000)
   7 Ni     3.733524    6.222540    8.000000    ( 0.0000,  0.0000,  0.0000)
   8 Ni     6.222540    6.222540    8.000000    ( 0.0000,  0.0000,  0.0000)
   9 Ni     0.000000    0.000000    9.760000    ( 0.0000,  0.0000,  0.0000)
  10 Ni     2.489016    0.000000    9.760000    ( 0.0000,  0.0000,  0.0000)
  11 Ni     4.978032    0.000000    9.760000    ( 0.0000,  0.0000,  0.0000)
  12 Ni     0.000000    2.489016    9.760000    ( 0.0000,  0.0000,  0.0000)
  13 Ni     2.489016    2.489016    9.760000    ( 0.0000,  0.0000,  0.0000)
  14 Ni     4.978032    2.489016    9.760000    ( 0.0000,  0.0000,  0.0000)
  15 Ni     0.000000    4.978032    9.760000    ( 0.0000,  0.0000,  0.0000)
  16 Ni     2.489016    4.978032    9.760000    ( 0.0000,  0.0000,  0.0000)
  17 Ni     4.978032    4.978032    9.760000    ( 0.0000,  0.0000,  0.0000)
  18 Ni     1.244508    1.244508   11.520000    ( 0.0000,  0.0000,  0.0000)
  19 Ni     3.733524    1.244508   11.520000    ( 0.0000,  0.0000,  0.0000)
  20 Ni     6.222540    1.244508   11.520000    ( 0.0000,  0.0000,  0.0000)
  21 Ni     1.244508    3.733524   11.520000    ( 0.0000,  0.0000,  0.0000)
  22 Ni     3.733524    3.733524   11.520000    ( 0.0000,  0.0000,  0.0000)
  23 Ni     6.222540    3.733524   11.520000    ( 0.0000,  0.0000,  0.0000)
  24 Ni     1.244508    6.222540   11.520000    ( 0.0000,  0.0000,  0.0000)
  25 Ni     3.733524    6.222540   11.520000    ( 0.0000,  0.0000,  0.0000)
  26 Ni     6.222540    6.222540   11.520000    ( 0.0000,  0.0000,  0.0000)
  27 Ni     0.000000    0.000000   13.280000    ( 0.0000,  0.0000,  0.0000)
  28 Ni     2.489016    0.000000   13.280000    ( 0.0000,  0.0000,  0.0000)
  29 Ni     4.978032    0.000000   13.280000    ( 0.0000,  0.0000,  0.0000)
  30 Ni     0.000000    2.489016   13.280000    ( 0.0000,  0.0000,  0.0000)
  31 Ni     2.489016    2.489016   13.280000    ( 0.0000,  0.0000,  0.0000)
  32 Ni     4.978032    2.489016   13.280000    ( 0.0000,  0.0000,  0.0000)
  33 Ni     0.000000    4.978032   13.280000    ( 0.0000,  0.0000,  0.0000)
  34 Ni     2.489016    4.978032   13.280000    ( 0.0000,  0.0000,  0.0000)
  35 Ni     4.978032    4.978032   13.280000    ( 0.0000,  0.0000,  0.0000)
  36 Mo     0.000000    0.000000   15.480000    ( 0.0000,  0.0000,  0.0000)
  37 B      1.525000    1.525000   17.005000    ( 0.0000,  0.0000,  0.0000)
  38 Mo     0.000000    3.050000   15.480000    ( 0.0000,  0.0000,  0.0000)
  39 B      1.525000    4.575000   17.005000    ( 0.0000,  0.0000,  0.0000)
  40 Mo     3.050000    0.000000   15.480000    ( 0.0000,  0.0000,  0.0000)
  41 B      4.575000    1.525000   17.005000    ( 0.0000,  0.0000,  0.0000)
  42 Mo     3.050000    3.050000   15.480000    ( 0.0000,  0.0000,  0.0000)
  43 B      4.575000    4.575000   17.005000    ( 0.0000,  0.0000,  0.0000)
  44 Au     1.761494    1.761494   18.805000    ( 0.0000,  0.0000,  0.0000)
  45 Au     1.761494    4.161494   18.805000    ( 0.0000,  0.0000,  0.0000)
  46 Au     4.161494    1.761494   18.805000    ( 0.0000,  0.0000,  0.0000)
  47 Au     4.161494    4.161494   18.805000    ( 0.0000,  0.0000,  0.0000)
  48 H      2.961494    2.961494   20.305000    ( 0.0000,  0.0000,  0.0000)

Unit cell:
           periodic     x           y           z      points  spacing
  1. axis:    yes    7.467048    0.000000    0.000000    36     0.2074
  2. axis:    yes    0.000000    7.467048    0.000000    36     0.2074
  3. axis:    yes    0.000000    0.000000   25.005000   124     0.2017

  Lengths:   7.467048   7.467048  25.005000
  Angles:   90.000000  90.000000  90.000000

Effective grid spacing dv^(1/3) = 0.2055

     iter     time        total  log10-change:
                         energy   eigst   dens
iter:   1 22:14:06 -1114.198910        c
iter:   2 22:15:56 -3548.388073        c -0.90
iter:   3 22:17:25  -529.390193        c -0.43
iter:   4 22:19:04  -378.039192        c -1.22
iter:   5 22:20:25  -387.574962        c -1.39
iter:   6 22:22:16  -351.745177        c -1.49
iter:   7 22:23:48  -353.352190        c -1.57
iter:   8 22:26:13  -352.594587        c -1.49
iter:   9 22:27:39  -350.654813        c -1.65
iter:  10 22:29:11  -348.834912        c -1.74
iter:  11 22:30:59  -340.164779        c -1.70
iter:  12 22:33:28  -364.598806        c -1.83
iter:  13 22:34:50  -342.608638        c -1.50
iter:  14 22:36:23  -358.344109        c -1.84
iter:  15 22:37:54  -347.217377        c -1.71
iter:  16 22:39:44  -344.402549        c -1.79
iter:  17 22:41:40  -340.728338        c -1.81
iter:  18 22:43:28  -338.434298        c -1.95
iter:  19 22:45:05  -337.578751        c -2.04
iter:  20 22:46:58  -339.688279        c -2.07
iter:  21 22:48:29  -338.965532        c -1.98
iter:  22 22:50:06  -339.397620        c -2.13
iter:  23 22:51:47  -337.817835        c -2.19
iter:  24 22:53:45  -340.738497        c -2.44
iter:  25 22:55:29  -337.362435        c -2.13
iter:  26 22:57:09  -337.305393        c -2.50
iter:  27 22:59:04  -337.250457        c -2.50
iter:  28 23:00:50  -337.084357        c -2.54
iter:  29 23:02:26  -337.022877        c -2.72
iter:  30 23:04:10  -337.139996        c -2.80
iter:  31 23:06:04  -337.269872        c -2.65
iter:  32 23:07:38  -337.657449        c -2.67
iter:  33 23:09:15  -337.058454        c -2.38
iter:  34 23:10:46  -337.042540        c -2.90
iter:  35 23:12:38  -337.034207        c -2.96
iter:  36 23:15:19  -336.998550        c -2.98
iter:  37 23:16:44  -337.026097        c -3.09
iter:  38 23:18:14  -337.005130        c -2.94
iter:  39 23:19:51  -337.018057        c -3.12
iter:  40 23:21:42  -336.991816        c -3.07
iter:  41 23:23:08  -336.997561        c -3.26
iter:  42 23:24:28  -337.039706        c -3.21
iter:  43 23:26:11  -336.999569        c -2.93
iter:  44 23:28:01  -336.988994        c -3.20
iter:  45 23:29:56  -336.986271        c -3.43
iter:  46 23:31:51  -336.993088c       c -3.45
iter:  47 23:33:23  -336.999873        c -3.28
iter:  48 23:35:01  -336.994058c       c -3.26
iter:  49 23:36:47  -336.991918        c -3.41
iter:  50 23:38:53  -336.985372        c -3.45
iter:  51 23:40:32  -336.989773c       c -3.52
iter:  52 23:42:19  -336.988432c       c -3.36
iter:  53 23:43:55  -336.987153c       c -3.57
iter:  54 23:45:54  -336.987660c       c -3.61
iter:  55 23:47:45  -336.987988c       c -3.54
iter:  56 23:49:48  -336.997832        c -3.58
iter:  57 23:51:28  -336.996740        c -3.33
iter:  58 23:53:10  -336.987724        c -3.36
iter:  59 23:54:55  -336.987306        c -3.61
iter:  60 23:56:37  -336.986903c       c -3.62
iter:  61 23:58:16  -336.987085c       c -3.69
iter:  62 23:59:51  -336.987872c       c -3.63
iter:  63 00:01:53  -336.985349c       c -3.73
iter:  64 00:03:14  -336.991318c       c -3.75
iter:  65 00:05:28  -336.989624c       c -3.52
iter:  66 00:07:30  -336.988057c       c -3.71
iter:  67 00:09:11  -336.990162c       c -3.81
iter:  68 00:11:13  -336.985872c       c -3.70
iter:  69 00:12:47  -336.986978c       c -3.73
iter:  70 00:14:21  -336.986746c       c -3.72
iter:  71 00:16:02  -336.986212c       c -3.97
iter:  72 00:17:26  -336.986416c       c -3.98
iter:  73 00:18:51  -336.985892c       c -4.01c

Converged after 73 iterations.

Dipole moment: (-13.860285, -13.860285, 0.557760) |e|*Ang

Energy contributions relative to reference atoms: (reference = -3994817.581302)

Kinetic:       +159.315337
Potential:     -112.431020
External:        +0.000000
XC:            -380.698613
Entropy (-ST):   -3.546912
Local:           -1.398139
SIC:             +0.000000
--------------------------
Free energy:   -338.759347
Extrapolated:  -336.985892

Showing only first 2 kpts
 Kpt  Band  Eigenvalues  Occupancy
  0   342      0.54748    1.30780
  0   343      0.55204    1.28702
  0   344      0.55592    1.26911
  0   345      0.56832    1.21072

  1   342      0.54415    1.32279
  1   343      0.55142    1.28988
  1   344      0.55536    1.27173
  1   345      0.57357    1.18551


Fermi level: 0.61111

No gap
No difference between direct/indirect transitions
Timing:                              incl.     excl.
-----------------------------------------------------------
Basic WFS set positions:             0.001     0.001   0.0% |
Basis functions set positions:       0.169     0.169   0.0% |
LCAO WFS Initialize:                 0.404     0.084   0.0% |
 Hamiltonian:                        0.320     0.000   0.0% |
  Atomic:                            0.162     0.002   0.0% |
   XC Correction:                    0.160     0.160   0.0% |
  Calculate atomic Hamiltonians:     0.025     0.025   0.0% |
  Communicate:                       0.000     0.000   0.0% |
  Hartree integrate/restrict:        0.011     0.011   0.0% |
  Initialize Hamiltonian:            0.001     0.001   0.0% |
  Poisson:                           0.073     0.005   0.0% |
   Communicate from 1D:              0.007     0.007   0.0% |
   Communicate from 2D:              0.007     0.007   0.0% |
   Communicate to 1D:                0.007     0.007   0.0% |
   Communicate to 2D:                0.009     0.009   0.0% |
   FFT 1D:                           0.014     0.014   0.0% |
   FFT 2D:                           0.023     0.023   0.0% |
  XC 3D grid:                        0.044     0.044   0.0% |
  vbar:                              0.004     0.004   0.0% |
P tci:                               3.484     3.484   0.0% |
SCF-cycle:                        7525.504     0.223   0.0% |
 Density:                         3518.999     0.001   0.0% |
  Atomic density matrices:           1.068     1.068   0.0% |
  Mix:                               9.954     9.954   0.1% |
  Multipole moments:                 0.021     0.021   0.0% |
  Normalize:                         0.008     0.008   0.0% |
  Pseudo density:                 3507.946     0.027   0.0% |
   Calculate density matrix:        10.042    10.042   0.1% |
   Construct density:             3497.602  3497.602  46.4% |------------------|
   Symmetrize density:               0.276     0.276   0.0% |
 Hamiltonian:                       24.840     0.003   0.0% |
  Atomic:                           11.547     0.127   0.0% |
   XC Correction:                   11.420    11.420   0.2% |
  Calculate atomic Hamiltonians:     1.862     1.862   0.0% |
  Communicate:                       0.000     0.000   0.0% |
  Hartree integrate/restrict:        0.735     0.735   0.0% |
  Poisson:                           5.025     0.384   0.0% |
   Communicate from 1D:              0.498     0.498   0.0% |
   Communicate from 2D:              0.538     0.538   0.0% |
   Communicate to 1D:                0.471     0.471   0.0% |
   Communicate to 2D:                0.578     0.578   0.0% |
   FFT 1D:                           1.035     1.035   0.0% |
   FFT 2D:                           1.519     1.519   0.0% |
  XC 3D grid:                        4.715     4.715   0.1% |
  vbar:                              0.953     0.953   0.0% |
 LCAO eigensolver:                3981.442     1.483   0.0% |
  Calculate projections:            91.679    91.679   1.2% |
  DenseAtomicCorrection:           234.008   234.008   3.1% ||
  Distribute overlap matrix:         3.211     3.211   0.0% |
  Orbital Layouts:                2889.878  2889.878  38.3% |--------------|
  Potential matrix:                732.793   732.793   9.7% |---|
  Sum over cells:                   28.389    28.389   0.4% |
ST tci:                              1.622     1.622   0.0% |
Set symmetry:                        0.000     0.000   0.0% |
TCI: Evaluate splines:               0.598     0.598   0.0% |
mktci:                               0.024     0.024   0.0% |
Other:                               3.811     3.811   0.1% |
-----------------------------------------------------------
Total:                                      7535.618 100.0%

Memory usage: 4.71 GiB
Date: Tue Mar  3 00:18:51 2026
