
  ___ ___ ___ _ _ _  
 |   |   |_  | | | | 
 | | | | | . | | | | 
 |__ |  _|___|_____|  25.7.0
 |___|_|             

User:   mikei@Z790-AORUS-ELITE-AX
Date:   Mon Feb 23 04:00:21 2026
Arch:   x86_64
Pid:    89048
CWD:    /home/mikei/Dokumenty/code/cemea/ocx
Python: 3.10.16
gpaw:   /home/mikei/.pyenv/versions/cemea-env/lib/python3.10/site-packages/gpaw
_gpaw:  /home/mikei/.pyenv/versions/cemea-env/lib/python3.10/site-packages/
        _gpaw.cpython-310-x86_64-linux-gnu.so
ase:    /home/mikei/.pyenv/versions/cemea-env/lib/python3.10/site-packages/ase (version 3.27.0)
numpy:  /home/mikei/.pyenv/versions/cemea-env/lib/python3.10/site-packages/numpy (version 2.2.6)
scipy:  /home/mikei/.pyenv/versions/cemea-env/lib/python3.10/site-packages/scipy (version 1.15.3)
libxc:  2.x.y
units:  Angstrom and eV
cores: 1
OpenMP: False
OMP_NUM_THREADS: 1

Input parameters:
  basis: dzp
  convergence: {density: 0.0001,
                eigenstates: 1e-05,
                energy: 1e-05}
  kpts: [4 4 1]
  mode: lcao

System changes: positions, numbers, cell, pbc, initial_charges, initial_magmoms 

Initialize ...

species:
  Ni:
    name: Nickel
    id: 1802175e8de9ea26d9f4394ec1a7d564
    Z: 28.0
    valence: 16
    core: 12
    charge: 0.0
    file: /home/mikei/.pyenv/versions/cemea-env/lib/python3.10/site-packages/gpaw_data/setups/Ni.LDA.gz
    compensation charges: {type: gauss,
                           rc: 0.36,
                           lmax: 2}
    cutoffs: {filter: 2.14,
              core: 1.98}
    projectors:
      #              energy  rcut
      - 4s(2.00)    -5.858   1.164
      - 3p(6.00)   -71.266   1.207
      - 4p(0.00)    -1.338   1.207
      - 3d(8.00)    -9.141   1.138
      -  s          21.353   1.164
      -  d          18.071   1.138
  
    # LCAO basis set for Ni:
    #   Name: dzp
    #   File: /home/mikei/.pyenv/versions/cemea-env/lib/python3.10/site-packages/gpaw_data/setups/Ni.dzp.basis.gz
    #   Number of radial functions: 9
    #   Number of spherical harmonics: 27
    #     l=0, rc=8.5156 Bohr: 4s-sz confined orbital
    #     l=1, rc=2.9375 Bohr: 3p-sz confined orbital
    #     l=1, rc=12.4062 Bohr: 4p-sz confined orbital
    #     l=2, rc=4.6875 Bohr: 3d-sz confined orbital
    #     l=0, rc=4.9688 Bohr: 4s-dz split-valence wave
    #     l=1, rc=2.0781 Bohr: 3p-dz split-valence wave
    #     l=1, rc=7.5469 Bohr: 4p-dz split-valence wave
    #     l=2, rc=2.9375 Bohr: 3d-dz split-valence wave
    #     l=1, rc=8.5156 Bohr: p-type Gaussian polarization
    #   Number of RI-basis functions 0

  Mo:
    name: Molybdenum
    id: ac24daaf086600a00ce6d19a74574df1
    Z: 42.0
    valence: 14
    core: 28
    charge: 0.0
    file: /home/mikei/.pyenv/versions/cemea-env/lib/python3.10/site-packages/gpaw_data/setups/Mo.LDA.gz
    compensation charges: {type: gauss,
                           rc: 0.38,
                           lmax: 2}
    cutoffs: {filter: 2.16,
              core: 1.42}
    projectors:
      #              energy  rcut
      - 4s(2.00)   -64.384   1.238
      - 5s(1.00)    -4.319   1.238
      - 4p(6.00)   -38.595   1.296
      - 5p(0.00)    -1.161   1.296
      - 4d(5.00)    -3.933   1.296
      -  d          23.278   1.296
  
    # LCAO basis set for Mo:
    #   Name: dzp
    #   File: /home/mikei/.pyenv/versions/cemea-env/lib/python3.10/site-packages/gpaw_data/setups/Mo.dzp.basis.gz
    #   Number of radial functions: 11
    #   Number of spherical harmonics: 29
    #     l=0, rc=3.5469 Bohr: 4s-sz confined orbital
    #     l=0, rc=10.0469 Bohr: 5s-sz confined orbital
    #     l=1, rc=4.0781 Bohr: 4p-sz confined orbital
    #     l=1, rc=14.0938 Bohr: 5p-sz confined orbital
    #     l=2, rc=7.2031 Bohr: 4d-sz confined orbital
    #     l=0, rc=2.1250 Bohr: 4s-dz split-valence wave
    #     l=0, rc=6.1250 Bohr: 5s-dz split-valence wave
    #     l=1, rc=2.5469 Bohr: 4p-dz split-valence wave
    #     l=1, rc=8.7656 Bohr: 5p-dz split-valence wave
    #     l=2, rc=4.2344 Bohr: 4d-dz split-valence wave
    #     l=1, rc=10.0469 Bohr: p-type Gaussian polarization
    #   Number of RI-basis functions 0

  C:
    name: Carbon
    id: d60576a1f549371a163e72552ca58787
    Z: 6.0
    valence: 4
    core: 2
    charge: 0.0
    file: /home/mikei/.pyenv/versions/cemea-env/lib/python3.10/site-packages/gpaw_data/setups/C.LDA.gz
    compensation charges: {type: gauss,
                           rc: 0.20,
                           lmax: 2}
    cutoffs: {filter: 1.14,
              core: 1.14}
    projectors:
      #              energy  rcut
      - 2s(2.00)   -13.639   0.635
      - 2p(2.00)    -5.414   0.635
      -  s          13.573   0.635
      -  p          21.797   0.635
      -  d           0.000   0.635
  
    # LCAO basis set for C:
    #   Name: dzp
    #   File: /home/mikei/.pyenv/versions/cemea-env/lib/python3.10/site-packages/gpaw_data/setups/C.dzp.basis.gz
    #   Number of radial functions: 5
    #   Number of spherical harmonics: 13
    #     l=0, rc=5.5469 Bohr: 2s-sz confined orbital
    #     l=1, rc=6.6719 Bohr: 2p-sz confined orbital
    #     l=0, rc=3.0312 Bohr: 2s-dz split-valence wave
    #     l=1, rc=3.7500 Bohr: 2p-dz split-valence wave
    #     l=2, rc=6.6719 Bohr: d-type Gaussian polarization
    #   Number of RI-basis functions 0

  Au:
    name: Gold
    id: a44207148b704df7bec07bf25e8feca8
    Z: 79.0
    valence: 11
    core: 68
    charge: 0.0
    file: /home/mikei/.pyenv/versions/cemea-env/lib/python3.10/site-packages/gpaw_data/setups/Au.LDA.gz
    compensation charges: {type: gauss,
                           rc: 0.42,
                           lmax: 2}
    cutoffs: {filter: 2.33,
              core: 2.81}
    projectors:
      #              energy  rcut
      - 6s(1.00)    -6.048   1.323
      - 6p(0.00)    -0.888   1.323
      - 5d(10.00)    -7.129   1.323
      -  s          21.163   1.323
      -  p          26.323   1.323
      -  d          20.082   1.323
  
    # LCAO basis set for Au:
    #   Name: dzp
    #   File: /home/mikei/.pyenv/versions/cemea-env/lib/python3.10/site-packages/gpaw_data/setups/Au.dzp.basis.gz
    #   Number of radial functions: 5
    #   Number of spherical harmonics: 15
    #     l=0, rc=8.5938 Bohr: 6s-sz confined orbital
    #     l=2, rc=5.9219 Bohr: 5d-sz confined orbital
    #     l=0, rc=4.9844 Bohr: 6s-dz split-valence wave
    #     l=2, rc=3.5156 Bohr: 5d-dz split-valence wave
    #     l=1, rc=8.5938 Bohr: p-type Gaussian polarization
    #   Number of RI-basis functions 0

Reference energy: -4436309.457509  # eV

Spin-paired calculation

Convergence criteria:
 Maximum [total energy] change in last 3 cyles: 1e-05 eV / valence electron
 Maximum integral of absolute [dens]ity change: 0.0001 electrons / valence electron
 Maximum integral of absolute [eigenst]ate change: 1e-05 eV^2 / valence electron
 Maximum number of scf [iter]ations: 333
 (Square brackets indicate name in SCF output, whereas a 'c' in
 the SCF output indicates the quantity has converged.)

Symmetries present (total): 2

  ( 1  0  0)  ( 0  1  0)
  ( 0  1  0)  ( 1  0  0)
  ( 0  0  1)  ( 0  0  1)

16 k-points: 4 x 4 x 1 Monkhorst-Pack grid
6 k-points in the irreducible part of the Brillouin zone
       k-points in crystal coordinates                weights
   0:     0.12500000   -0.12500000    0.00000000          2/16
   1:     0.12500000    0.12500000    0.00000000          2/16
   2:     0.37500000   -0.37500000    0.00000000          2/16
   3:     0.37500000   -0.12500000    0.00000000          4/16
   4:     0.37500000    0.12500000    0.00000000          4/16
   5:     0.37500000    0.37500000    0.00000000          2/16

Wave functions: LCAO
  Diagonalizer: Serial LAPACK
  Atomic Correction: dense with blas
  Data-type: complex
 

Occupation numbers: Fermi-Dirac:
  width: 0.1000  # eV
 

Eigensolver
   LCAO using direct dense diagonalizer 

Densities:
  Coarse grid: 36*36*128 grid
  Fine grid: 72*72*256 grid
  Total Charge: 0.000000 

Density mixing:
  Method: separate
  Backend: pulay
  Linear mixing parameter: 0.05
  old densities: 5
  Damping of long wavelength oscillations: 50 

Hamiltonian:
  XC and Coulomb potentials evaluated on a 72*72*256 grid
  Using the LDA Exchange-Correlation functional
  Interpolation: tri-quintic (5. degree polynomial)
  Poisson solver: FastPoissonSolver using
    Stencil: 6*3+1=19 point O(h^6) finite-difference Laplacian
    FFT axes: [np.int64(0), np.int64(1), np.int64(2)]
    FST axes: []
 

Memory estimate:
  Process memory now: 4595.48 MiB
  Calculator: 953.27 MiB
    Density: 242.06 MiB
      Arrays: 32.91 MiB
      Localized functions: 196.50 MiB
      Mixer: 12.66 MiB
    Hamiltonian: 36.10 MiB
      Arrays: 21.52 MiB
      XC: 0.00 MiB
      Poisson: 0.00 MiB
      vbar: 14.58 MiB
    Wavefunctions: 675.10 MiB
      C [qnM]: 54.58 MiB
      S, T [2 x qmm]: 317.11 MiB
      P [aqMi]: 6.90 MiB
      BasisFunctions: 296.51 MiB
      Eigensolver: 0.00 MiB

Total number of cores used: 1

Number of atoms: 52
Number of atomic orbitals: 1316
Number of bands in calculation: 453
Number of valence electrons: 748
Bands to converge: occupied

... initialized

Initializing position-dependent things.

Density initialized from atomic densities
      .-----------------.  
     /|                 |  
    / |                 |  
   /  |                 |  
  /   |                 |  
 *    |                 |  
 |    |                 |  
 |    |                 |  
 |    |                 |  
 |    |                 |  
 |    |  Au    Au       |  
 |    |Au Mo Au     Mo  |  
 |    |                 |  
 |    |Mo C      Mo C   |  
 |  Mo|       Mo        |  
 |    |                 |  
 |    |C         C      |  
 Mo Ni|   NMo   Ni      |  
 | Ni | NNi   NNi   Ni  |  
 |    |                 |  
 Ni   NNi   NNi   Ni    |  
 |  NNi   NNi   NNi     |  
 | Ni | NNi   NNi   Ni  |  
 |    |                 |  
 Ni   NNi   NNi   Ni    |  
 |   Ni    Ni    Ni     |  
 |    |                 |  
 |    |                 |  
 |    |                 |  
 |    |                 |  
 |    |                 |  
 |    .-----------------.  
 |   /                 /   
 |  /                 /    
 | /                 /     
 |/                 /      
 *-----------------*       

Atomic positions and initial magnetic moments

Positions:
   0 Ni     1.244508    1.244508    8.000000    ( 0.0000,  0.0000,  0.0000)
   1 Ni     3.733524    1.244508    8.000000    ( 0.0000,  0.0000,  0.0000)
   2 Ni     6.222540    1.244508    8.000000    ( 0.0000,  0.0000,  0.0000)
   3 Ni     1.244508    3.733524    8.000000    ( 0.0000,  0.0000,  0.0000)
   4 Ni     3.733524    3.733524    8.000000    ( 0.0000,  0.0000,  0.0000)
   5 Ni     6.222540    3.733524    8.000000    ( 0.0000,  0.0000,  0.0000)
   6 Ni     1.244508    6.222540    8.000000    ( 0.0000,  0.0000,  0.0000)
   7 Ni     3.733524    6.222540    8.000000    ( 0.0000,  0.0000,  0.0000)
   8 Ni     6.222540    6.222540    8.000000    ( 0.0000,  0.0000,  0.0000)
   9 Ni     0.000000    0.000000    9.760000    ( 0.0000,  0.0000,  0.0000)
  10 Ni     2.489016    0.000000    9.760000    ( 0.0000,  0.0000,  0.0000)
  11 Ni     4.978032    0.000000    9.760000    ( 0.0000,  0.0000,  0.0000)
  12 Ni     0.000000    2.489016    9.760000    ( 0.0000,  0.0000,  0.0000)
  13 Ni     2.489016    2.489016    9.760000    ( 0.0000,  0.0000,  0.0000)
  14 Ni     4.978032    2.489016    9.760000    ( 0.0000,  0.0000,  0.0000)
  15 Ni     0.000000    4.978032    9.760000    ( 0.0000,  0.0000,  0.0000)
  16 Ni     2.489016    4.978032    9.760000    ( 0.0000,  0.0000,  0.0000)
  17 Ni     4.978032    4.978032    9.760000    ( 0.0000,  0.0000,  0.0000)
  18 Ni     1.244508    1.244508   11.520000    ( 0.0000,  0.0000,  0.0000)
  19 Ni     3.733524    1.244508   11.520000    ( 0.0000,  0.0000,  0.0000)
  20 Ni     6.222540    1.244508   11.520000    ( 0.0000,  0.0000,  0.0000)
  21 Ni     1.244508    3.733524   11.520000    ( 0.0000,  0.0000,  0.0000)
  22 Ni     3.733524    3.733524   11.520000    ( 0.0000,  0.0000,  0.0000)
  23 Ni     6.222540    3.733524   11.520000    ( 0.0000,  0.0000,  0.0000)
  24 Ni     1.244508    6.222540   11.520000    ( 0.0000,  0.0000,  0.0000)
  25 Ni     3.733524    6.222540   11.520000    ( 0.0000,  0.0000,  0.0000)
  26 Ni     6.222540    6.222540   11.520000    ( 0.0000,  0.0000,  0.0000)
  27 Ni     0.000000    0.000000   13.280000    ( 0.0000,  0.0000,  0.0000)
  28 Ni     2.489016    0.000000   13.280000    ( 0.0000,  0.0000,  0.0000)
  29 Ni     4.978032    0.000000   13.280000    ( 0.0000,  0.0000,  0.0000)
  30 Ni     0.000000    2.489016   13.280000    ( 0.0000,  0.0000,  0.0000)
  31 Ni     2.489016    2.489016   13.280000    ( 0.0000,  0.0000,  0.0000)
  32 Ni     4.978032    2.489016   13.280000    ( 0.0000,  0.0000,  0.0000)
  33 Ni     0.000000    4.978032   13.280000    ( 0.0000,  0.0000,  0.0000)
  34 Ni     2.489016    4.978032   13.280000    ( 0.0000,  0.0000,  0.0000)
  35 Ni     4.978032    4.978032   13.280000    ( 0.0000,  0.0000,  0.0000)
  36 Mo     0.000000    0.000000   15.480000    ( 0.0000,  0.0000,  0.0000)
  37 Mo     2.060000    2.060000   17.540000    ( 0.0000,  0.0000,  0.0000)
  38 C      2.060000    2.060000   15.480000    ( 0.0000,  0.0000,  0.0000)
  39 Mo     0.000000    4.120000   15.480000    ( 0.0000,  0.0000,  0.0000)
  40 Mo     2.060000    6.180000   17.540000    ( 0.0000,  0.0000,  0.0000)
  41 C      2.060000    6.180000   15.480000    ( 0.0000,  0.0000,  0.0000)
  42 Mo     4.120000    0.000000   15.480000    ( 0.0000,  0.0000,  0.0000)
  43 Mo     6.180000    2.060000   17.540000    ( 0.0000,  0.0000,  0.0000)
  44 C      6.180000    2.060000   15.480000    ( 0.0000,  0.0000,  0.0000)
  45 Mo     4.120000    4.120000   15.480000    ( 0.0000,  0.0000,  0.0000)
  46 Mo     6.180000    6.180000   17.540000    ( 0.0000,  0.0000,  0.0000)
  47 C      6.180000    6.180000   15.480000    ( 0.0000,  0.0000,  0.0000)
  48 Au     1.991786    1.991786   19.340000    ( 0.0000,  0.0000,  0.0000)
  49 Au     1.991786    4.391786   19.340000    ( 0.0000,  0.0000,  0.0000)
  50 Au     4.391786    1.991786   19.340000    ( 0.0000,  0.0000,  0.0000)
  51 Au     4.391786    4.391786   19.340000    ( 0.0000,  0.0000,  0.0000)

Unit cell:
           periodic     x           y           z      points  spacing
  1. axis:    yes    7.467048    0.000000    0.000000    36     0.2074
  2. axis:    yes    0.000000    7.467048    0.000000    36     0.2074
  3. axis:    yes    0.000000    0.000000   25.540000   128     0.1995

  Lengths:   7.467048   7.467048  25.540000
  Angles:   90.000000  90.000000  90.000000

Effective grid spacing dv^(1/3) = 0.2048

     iter     time        total  log10-change:
                         energy   eigst   dens
iter:   1 04:00:50 -1419.349293        c
iter:   2 04:02:00 -6517.797301        c -0.81
iter:   3 04:03:10  -516.062469        c -0.35
iter:   4 04:04:30  -471.289652        c -1.31
iter:   5 04:05:41  -479.426180        c -1.22
iter:   6 04:06:53  -432.745920        c -1.39
iter:   7 04:08:03  -422.914449        c -1.53
iter:   8 04:09:13  -403.863042        c -1.57
iter:   9 04:10:23  -399.461509        c -1.54
iter:  10 04:11:35  -386.004192        c -1.51
iter:  11 04:12:47  -380.574956        c -1.67
iter:  12 04:14:03  -382.568907        c -1.78
iter:  13 04:15:19  -388.874691        c -1.78
iter:  14 04:16:34  -385.744200        c -1.82
iter:  15 04:17:52  -405.904469        c -1.88
iter:  16 04:19:04  -399.518240        c -1.66
iter:  17 04:20:15  -391.212487        c -1.75
iter:  18 04:21:27  -383.522695        c -1.83
iter:  19 04:22:37  -385.183032        c -2.10
iter:  20 04:23:47  -381.332111        c -1.85
iter:  21 04:25:04  -384.132905        c -2.08
iter:  22 04:26:14  -380.474460        c -2.03
iter:  23 04:27:25  -381.258930        c -2.21
iter:  24 04:28:37  -380.678843        c -2.00
iter:  25 04:29:47  -379.619601        c -2.08
iter:  26 04:31:01  -380.289512        c -2.33
iter:  27 04:32:17  -379.078285        c -2.28
iter:  28 04:33:35  -378.834631        c -2.32
iter:  29 04:34:45  -378.612296        c -2.44
iter:  30 04:36:01  -378.679171        c -2.72
iter:  31 04:37:11  -378.577433        c -2.58
iter:  32 04:38:21  -378.589628        c -2.83
iter:  33 04:39:31  -378.561312        c -2.90
iter:  34 04:40:43  -378.510251        c -2.77
iter:  35 04:41:53  -378.512069        c -3.23
iter:  36 04:43:06  -378.528166        c -3.26
iter:  37 04:44:17  -378.516953        c -3.29
iter:  38 04:45:34  -378.511528        c -3.01
iter:  39 04:46:52  -378.526421        c -3.41
iter:  40 04:48:03  -378.507360        c -3.36
iter:  41 04:49:17  -378.514288        c -3.40
iter:  42 04:50:29  -378.511732c       c -3.58
iter:  43 04:51:41  -378.527838        c -3.59
iter:  44 04:52:52  -378.507952        c -3.36
iter:  45 04:54:03  -378.511919        c -3.45
iter:  46 04:55:16  -378.513395c       c -3.64
iter:  47 04:56:26  -378.510225c       c -3.66
iter:  48 04:57:36  -378.513400c       c -3.78
iter:  49 04:58:51  -378.506817c       c -3.73
iter:  50 05:00:01  -378.515293        c -3.69
iter:  51 05:01:15  -378.509538        c -3.72
iter:  52 05:02:28  -378.512837c       c -3.78
iter:  53 05:03:39  -378.510823c       c -3.77
iter:  54 05:04:49  -378.507750c       c -3.93
iter:  55 05:05:59  -378.512224c       c -3.76
iter:  56 05:07:12  -378.508529c       c -3.89
iter:  57 05:08:27  -378.512473c       c -3.92
iter:  58 05:09:40  -378.508384c       c -3.89
iter:  59 05:10:52  -378.509824c       c -3.86
iter:  60 05:12:08  -378.512047c       c -4.08c

Converged after 60 iterations.

Dipole moment: (-7.959678, -7.959678, 0.279293) |e|*Ang

Energy contributions relative to reference atoms: (reference = -4436309.457509)

Kinetic:       +223.428022
Potential:     -190.185537
External:        +0.000000
XC:            -408.973090
Entropy (-ST):   -3.749262
Local:           -0.906811
SIC:             +0.000000
--------------------------
Free energy:   -380.386678
Extrapolated:  -378.512047

Showing only first 2 kpts
 Kpt  Band  Eigenvalues  Occupancy
  0   372      1.11997    1.31581
  0   373      1.12625    1.28727
  0   374      1.14098    1.21839
  0   375      1.14877    1.18099

  1   372      1.12533    1.29150
  1   373      1.13655    1.23935
  1   374      1.14375    1.20513
  1   375      1.15952    1.12853


Fermi level: 1.18537

No gap
No difference between direct/indirect transitions
Timing:                              incl.     excl.
-----------------------------------------------------------
Basic WFS set positions:             0.001     0.001   0.0% |
Basis functions set positions:       0.180     0.180   0.0% |
LCAO WFS Initialize:                 0.419     0.090   0.0% |
 Hamiltonian:                        0.328     0.000   0.0% |
  Atomic:                            0.169     0.002   0.0% |
   XC Correction:                    0.167     0.167   0.0% |
  Calculate atomic Hamiltonians:     0.028     0.028   0.0% |
  Communicate:                       0.000     0.000   0.0% |
  Hartree integrate/restrict:        0.006     0.006   0.0% |
  Initialize Hamiltonian:            0.001     0.001   0.0% |
  Poisson:                           0.079     0.006   0.0% |
   Communicate from 1D:              0.008     0.008   0.0% |
   Communicate from 2D:              0.006     0.006   0.0% |
   Communicate to 1D:                0.008     0.008   0.0% |
   Communicate to 2D:                0.012     0.012   0.0% |
   FFT 1D:                           0.008     0.008   0.0% |
   FFT 2D:                           0.032     0.032   0.0% |
  XC 3D grid:                        0.045     0.045   0.0% |
  vbar:                              0.001     0.001   0.0% |
P tci:                               4.073     4.073   0.1% |
SCF-cycle:                        4296.224     0.173   0.0% |
 Density:                         3154.990     0.001   0.0% |
  Atomic density matrices:           0.909     0.909   0.0% |
  Mix:                               6.681     6.681   0.2% |
  Multipole moments:                 0.018     0.018   0.0% |
  Normalize:                         0.007     0.007   0.0% |
  Pseudo density:                 3147.374     0.024   0.0% |
   Calculate density matrix:         7.546     7.546   0.2% |
   Construct density:             3139.583  3139.583  72.9% |----------------------------|
   Symmetrize density:               0.222     0.222   0.0% |
 Hamiltonian:                       20.419     0.002   0.0% |
  Atomic:                            9.999     0.109   0.0% |
   XC Correction:                    9.889     9.889   0.2% |
  Calculate atomic Hamiltonians:     1.633     1.633   0.0% |
  Communicate:                       0.000     0.000   0.0% |
  Hartree integrate/restrict:        0.379     0.379   0.0% |
  Poisson:                           4.361     0.345   0.0% |
   Communicate from 1D:              0.480     0.480   0.0% |
   Communicate from 2D:              0.364     0.364   0.0% |
   Communicate to 1D:                0.425     0.425   0.0% |
   Communicate to 2D:                0.593     0.593   0.0% |
   FFT 1D:                           0.496     0.496   0.0% |
   FFT 2D:                           1.658     1.658   0.0% |
  XC 3D grid:                        3.448     3.448   0.1% |
  vbar:                              0.597     0.597   0.0% |
 LCAO eigensolver:                1120.643     1.654   0.0% |
  Calculate projections:            38.930    38.930   0.9% |
  DenseAtomicCorrection:           173.184   173.184   4.0% |-|
  Distribute overlap matrix:         2.889     2.889   0.1% |
  Orbital Layouts:                 233.161   233.161   5.4% |-|
  Potential matrix:                645.930   645.930  15.0% |-----|
  Sum over cells:                   24.894    24.894   0.6% |
ST tci:                              1.886     1.886   0.0% |
Set symmetry:                        0.000     0.000   0.0% |
TCI: Evaluate splines:               0.472     0.472   0.0% |
mktci:                               0.026     0.026   0.0% |
Other:                               3.614     3.614   0.1% |
-----------------------------------------------------------
Total:                                      4306.895 100.0%

Memory usage: 4.49 GiB
Date: Mon Feb 23 05:12:08 2026
