
  ___ ___ ___ _ _ _  
 |   |   |_  | | | | 
 | | | | | . | | | | 
 |__ |  _|___|_____|  25.7.0
 |___|_|             

User:   mikei@Z790-AORUS-ELITE-AX
Date:   Mon Feb 23 05:12:08 2026
Arch:   x86_64
Pid:    89048
CWD:    /home/mikei/Dokumenty/code/cemea/ocx
Python: 3.10.16
gpaw:   /home/mikei/.pyenv/versions/cemea-env/lib/python3.10/site-packages/gpaw
_gpaw:  /home/mikei/.pyenv/versions/cemea-env/lib/python3.10/site-packages/
        _gpaw.cpython-310-x86_64-linux-gnu.so
ase:    /home/mikei/.pyenv/versions/cemea-env/lib/python3.10/site-packages/ase (version 3.27.0)
numpy:  /home/mikei/.pyenv/versions/cemea-env/lib/python3.10/site-packages/numpy (version 2.2.6)
scipy:  /home/mikei/.pyenv/versions/cemea-env/lib/python3.10/site-packages/scipy (version 1.15.3)
libxc:  2.x.y
units:  Angstrom and eV
cores: 1
OpenMP: False
OMP_NUM_THREADS: 1

Input parameters:
  basis: dzp
  convergence: {density: 0.0001,
                eigenstates: 1e-05,
                energy: 1e-05}
  kpts: [4 4 1]
  mode: lcao

System changes: positions, numbers, cell, pbc, initial_charges, initial_magmoms 

Initialize ...

species:
  Ni:
    name: Nickel
    id: 1802175e8de9ea26d9f4394ec1a7d564
    Z: 28.0
    valence: 16
    core: 12
    charge: 0.0
    file: /home/mikei/.pyenv/versions/cemea-env/lib/python3.10/site-packages/gpaw_data/setups/Ni.LDA.gz
    compensation charges: {type: gauss,
                           rc: 0.36,
                           lmax: 2}
    cutoffs: {filter: 2.14,
              core: 1.98}
    projectors:
      #              energy  rcut
      - 4s(2.00)    -5.858   1.164
      - 3p(6.00)   -71.266   1.207
      - 4p(0.00)    -1.338   1.207
      - 3d(8.00)    -9.141   1.138
      -  s          21.353   1.164
      -  d          18.071   1.138
  
    # LCAO basis set for Ni:
    #   Name: dzp
    #   File: /home/mikei/.pyenv/versions/cemea-env/lib/python3.10/site-packages/gpaw_data/setups/Ni.dzp.basis.gz
    #   Number of radial functions: 9
    #   Number of spherical harmonics: 27
    #     l=0, rc=8.5156 Bohr: 4s-sz confined orbital
    #     l=1, rc=2.9375 Bohr: 3p-sz confined orbital
    #     l=1, rc=12.4062 Bohr: 4p-sz confined orbital
    #     l=2, rc=4.6875 Bohr: 3d-sz confined orbital
    #     l=0, rc=4.9688 Bohr: 4s-dz split-valence wave
    #     l=1, rc=2.0781 Bohr: 3p-dz split-valence wave
    #     l=1, rc=7.5469 Bohr: 4p-dz split-valence wave
    #     l=2, rc=2.9375 Bohr: 3d-dz split-valence wave
    #     l=1, rc=8.5156 Bohr: p-type Gaussian polarization
    #   Number of RI-basis functions 0

  Mo:
    name: Molybdenum
    id: ac24daaf086600a00ce6d19a74574df1
    Z: 42.0
    valence: 14
    core: 28
    charge: 0.0
    file: /home/mikei/.pyenv/versions/cemea-env/lib/python3.10/site-packages/gpaw_data/setups/Mo.LDA.gz
    compensation charges: {type: gauss,
                           rc: 0.38,
                           lmax: 2}
    cutoffs: {filter: 2.16,
              core: 1.42}
    projectors:
      #              energy  rcut
      - 4s(2.00)   -64.384   1.238
      - 5s(1.00)    -4.319   1.238
      - 4p(6.00)   -38.595   1.296
      - 5p(0.00)    -1.161   1.296
      - 4d(5.00)    -3.933   1.296
      -  d          23.278   1.296
  
    # LCAO basis set for Mo:
    #   Name: dzp
    #   File: /home/mikei/.pyenv/versions/cemea-env/lib/python3.10/site-packages/gpaw_data/setups/Mo.dzp.basis.gz
    #   Number of radial functions: 11
    #   Number of spherical harmonics: 29
    #     l=0, rc=3.5469 Bohr: 4s-sz confined orbital
    #     l=0, rc=10.0469 Bohr: 5s-sz confined orbital
    #     l=1, rc=4.0781 Bohr: 4p-sz confined orbital
    #     l=1, rc=14.0938 Bohr: 5p-sz confined orbital
    #     l=2, rc=7.2031 Bohr: 4d-sz confined orbital
    #     l=0, rc=2.1250 Bohr: 4s-dz split-valence wave
    #     l=0, rc=6.1250 Bohr: 5s-dz split-valence wave
    #     l=1, rc=2.5469 Bohr: 4p-dz split-valence wave
    #     l=1, rc=8.7656 Bohr: 5p-dz split-valence wave
    #     l=2, rc=4.2344 Bohr: 4d-dz split-valence wave
    #     l=1, rc=10.0469 Bohr: p-type Gaussian polarization
    #   Number of RI-basis functions 0

  C:
    name: Carbon
    id: d60576a1f549371a163e72552ca58787
    Z: 6.0
    valence: 4
    core: 2
    charge: 0.0
    file: /home/mikei/.pyenv/versions/cemea-env/lib/python3.10/site-packages/gpaw_data/setups/C.LDA.gz
    compensation charges: {type: gauss,
                           rc: 0.20,
                           lmax: 2}
    cutoffs: {filter: 1.14,
              core: 1.14}
    projectors:
      #              energy  rcut
      - 2s(2.00)   -13.639   0.635
      - 2p(2.00)    -5.414   0.635
      -  s          13.573   0.635
      -  p          21.797   0.635
      -  d           0.000   0.635
  
    # LCAO basis set for C:
    #   Name: dzp
    #   File: /home/mikei/.pyenv/versions/cemea-env/lib/python3.10/site-packages/gpaw_data/setups/C.dzp.basis.gz
    #   Number of radial functions: 5
    #   Number of spherical harmonics: 13
    #     l=0, rc=5.5469 Bohr: 2s-sz confined orbital
    #     l=1, rc=6.6719 Bohr: 2p-sz confined orbital
    #     l=0, rc=3.0312 Bohr: 2s-dz split-valence wave
    #     l=1, rc=3.7500 Bohr: 2p-dz split-valence wave
    #     l=2, rc=6.6719 Bohr: d-type Gaussian polarization
    #   Number of RI-basis functions 0

  Au:
    name: Gold
    id: a44207148b704df7bec07bf25e8feca8
    Z: 79.0
    valence: 11
    core: 68
    charge: 0.0
    file: /home/mikei/.pyenv/versions/cemea-env/lib/python3.10/site-packages/gpaw_data/setups/Au.LDA.gz
    compensation charges: {type: gauss,
                           rc: 0.42,
                           lmax: 2}
    cutoffs: {filter: 2.33,
              core: 2.81}
    projectors:
      #              energy  rcut
      - 6s(1.00)    -6.048   1.323
      - 6p(0.00)    -0.888   1.323
      - 5d(10.00)    -7.129   1.323
      -  s          21.163   1.323
      -  p          26.323   1.323
      -  d          20.082   1.323
  
    # LCAO basis set for Au:
    #   Name: dzp
    #   File: /home/mikei/.pyenv/versions/cemea-env/lib/python3.10/site-packages/gpaw_data/setups/Au.dzp.basis.gz
    #   Number of radial functions: 5
    #   Number of spherical harmonics: 15
    #     l=0, rc=8.5938 Bohr: 6s-sz confined orbital
    #     l=2, rc=5.9219 Bohr: 5d-sz confined orbital
    #     l=0, rc=4.9844 Bohr: 6s-dz split-valence wave
    #     l=2, rc=3.5156 Bohr: 5d-dz split-valence wave
    #     l=1, rc=8.5938 Bohr: p-type Gaussian polarization
    #   Number of RI-basis functions 0

  H:
    name: Hydrogen
    id: 4766778ce56282eaa64abeb28b7c1de3
    Z: 1.0
    valence: 1
    core: 0
    charge: 0.0
    file: /home/mikei/.pyenv/versions/cemea-env/lib/python3.10/site-packages/gpaw_data/setups/H.LDA.gz
    compensation charges: {type: gauss,
                           rc: 0.15,
                           lmax: 2}
    cutoffs: {filter: 0.85,
              core: 0.53}
    projectors:
      #              energy  rcut
      - 1s(1.00)    -6.353   0.476
      -  s          20.858   0.476
      -  p           0.000   0.476
  
    # LCAO basis set for H:
    #   Name: dzp
    #   File: /home/mikei/.pyenv/versions/cemea-env/lib/python3.10/site-packages/gpaw_data/setups/H.dzp.basis.gz
    #   Number of radial functions: 3
    #   Number of spherical harmonics: 5
    #     l=0, rc=6.4219 Bohr: 1s-sz confined orbital
    #     l=0, rc=3.6094 Bohr: 1s-dz split-valence wave
    #     l=1, rc=6.4219 Bohr: p-type Gaussian polarization
    #   Number of RI-basis functions 0

Reference energy: -4436321.586467  # eV

Spin-paired calculation

Convergence criteria:
 Maximum [total energy] change in last 3 cyles: 1e-05 eV / valence electron
 Maximum integral of absolute [dens]ity change: 0.0001 electrons / valence electron
 Maximum integral of absolute [eigenst]ate change: 1e-05 eV^2 / valence electron
 Maximum number of scf [iter]ations: 333
 (Square brackets indicate name in SCF output, whereas a 'c' in
 the SCF output indicates the quantity has converged.)

Symmetries present (total): 2

  ( 1  0  0)  ( 0  1  0)
  ( 0  1  0)  ( 1  0  0)
  ( 0  0  1)  ( 0  0  1)

16 k-points: 4 x 4 x 1 Monkhorst-Pack grid
6 k-points in the irreducible part of the Brillouin zone
       k-points in crystal coordinates                weights
   0:     0.12500000   -0.12500000    0.00000000          2/16
   1:     0.12500000    0.12500000    0.00000000          2/16
   2:     0.37500000   -0.37500000    0.00000000          2/16
   3:     0.37500000   -0.12500000    0.00000000          4/16
   4:     0.37500000    0.12500000    0.00000000          4/16
   5:     0.37500000    0.37500000    0.00000000          2/16

Wave functions: LCAO
  Diagonalizer: Serial LAPACK
  Atomic Correction: dense with blas
  Data-type: complex
 

Occupation numbers: Fermi-Dirac:
  width: 0.1000  # eV
 

Eigensolver
   LCAO using direct dense diagonalizer 

Densities:
  Coarse grid: 36*36*128 grid
  Fine grid: 72*72*256 grid
  Total Charge: 0.000000 

Density mixing:
  Method: separate
  Backend: pulay
  Linear mixing parameter: 0.05
  old densities: 5
  Damping of long wavelength oscillations: 50 

Hamiltonian:
  XC and Coulomb potentials evaluated on a 72*72*256 grid
  Using the LDA Exchange-Correlation functional
  Interpolation: tri-quintic (5. degree polynomial)
  Poisson solver: FastPoissonSolver using
    Stencil: 6*3+1=19 point O(h^6) finite-difference Laplacian
    FFT axes: [np.int64(0), np.int64(1), np.int64(2)]
    FST axes: []
 

Memory estimate:
  Process memory now: 4595.48 MiB
  Calculator: 956.93 MiB
    Density: 242.30 MiB
      Arrays: 32.91 MiB
      Localized functions: 196.73 MiB
      Mixer: 12.66 MiB
    Hamiltonian: 36.12 MiB
      Arrays: 21.52 MiB
      XC: 0.00 MiB
      Poisson: 0.00 MiB
      vbar: 14.60 MiB
    Wavefunctions: 678.52 MiB
      C [qnM]: 54.91 MiB
      S, T [2 x qmm]: 319.53 MiB
      P [aqMi]: 6.96 MiB
      BasisFunctions: 297.12 MiB
      Eigensolver: 0.00 MiB

Total number of cores used: 1

Number of atoms: 53
Number of atomic orbitals: 1321
Number of bands in calculation: 454
Number of valence electrons: 749
Bands to converge: occupied

... initialized

Initializing position-dependent things.

Density initialized from atomic densities
      .-----------------.  
     /|                 |  
    / |                 |  
   /  |                 |  
  /   |                 |  
 *    |                 |  
 |    |                 |  
 |    |                 |  
 |    |                 |  
 |    |    H            |  
 |    |  Au    Au       |  
 |    |Au Mo Au     Mo  |  
 |    |                 |  
 |    |Mo C      Mo C   |  
 |  Mo|       Mo        |  
 |    |                 |  
 |    |C         C      |  
 Mo Ni|   NMo   Ni      |  
 | Ni | NNi   NNi   Ni  |  
 |    |                 |  
 Ni   NNi   NNi   Ni    |  
 |  NNi   NNi   NNi     |  
 | Ni | NNi   NNi   Ni  |  
 |    |                 |  
 Ni   NNi   NNi   Ni    |  
 |   Ni    Ni    Ni     |  
 |    |                 |  
 |    |                 |  
 |    |                 |  
 |    |                 |  
 |    |                 |  
 |    .-----------------.  
 |   /                 /   
 |  /                 /    
 | /                 /     
 |/                 /      
 *-----------------*       

Atomic positions and initial magnetic moments

Positions:
   0 Ni     1.244508    1.244508    8.000000    ( 0.0000,  0.0000,  0.0000)
   1 Ni     3.733524    1.244508    8.000000    ( 0.0000,  0.0000,  0.0000)
   2 Ni     6.222540    1.244508    8.000000    ( 0.0000,  0.0000,  0.0000)
   3 Ni     1.244508    3.733524    8.000000    ( 0.0000,  0.0000,  0.0000)
   4 Ni     3.733524    3.733524    8.000000    ( 0.0000,  0.0000,  0.0000)
   5 Ni     6.222540    3.733524    8.000000    ( 0.0000,  0.0000,  0.0000)
   6 Ni     1.244508    6.222540    8.000000    ( 0.0000,  0.0000,  0.0000)
   7 Ni     3.733524    6.222540    8.000000    ( 0.0000,  0.0000,  0.0000)
   8 Ni     6.222540    6.222540    8.000000    ( 0.0000,  0.0000,  0.0000)
   9 Ni     0.000000    0.000000    9.760000    ( 0.0000,  0.0000,  0.0000)
  10 Ni     2.489016    0.000000    9.760000    ( 0.0000,  0.0000,  0.0000)
  11 Ni     4.978032    0.000000    9.760000    ( 0.0000,  0.0000,  0.0000)
  12 Ni     0.000000    2.489016    9.760000    ( 0.0000,  0.0000,  0.0000)
  13 Ni     2.489016    2.489016    9.760000    ( 0.0000,  0.0000,  0.0000)
  14 Ni     4.978032    2.489016    9.760000    ( 0.0000,  0.0000,  0.0000)
  15 Ni     0.000000    4.978032    9.760000    ( 0.0000,  0.0000,  0.0000)
  16 Ni     2.489016    4.978032    9.760000    ( 0.0000,  0.0000,  0.0000)
  17 Ni     4.978032    4.978032    9.760000    ( 0.0000,  0.0000,  0.0000)
  18 Ni     1.244508    1.244508   11.520000    ( 0.0000,  0.0000,  0.0000)
  19 Ni     3.733524    1.244508   11.520000    ( 0.0000,  0.0000,  0.0000)
  20 Ni     6.222540    1.244508   11.520000    ( 0.0000,  0.0000,  0.0000)
  21 Ni     1.244508    3.733524   11.520000    ( 0.0000,  0.0000,  0.0000)
  22 Ni     3.733524    3.733524   11.520000    ( 0.0000,  0.0000,  0.0000)
  23 Ni     6.222540    3.733524   11.520000    ( 0.0000,  0.0000,  0.0000)
  24 Ni     1.244508    6.222540   11.520000    ( 0.0000,  0.0000,  0.0000)
  25 Ni     3.733524    6.222540   11.520000    ( 0.0000,  0.0000,  0.0000)
  26 Ni     6.222540    6.222540   11.520000    ( 0.0000,  0.0000,  0.0000)
  27 Ni     0.000000    0.000000   13.280000    ( 0.0000,  0.0000,  0.0000)
  28 Ni     2.489016    0.000000   13.280000    ( 0.0000,  0.0000,  0.0000)
  29 Ni     4.978032    0.000000   13.280000    ( 0.0000,  0.0000,  0.0000)
  30 Ni     0.000000    2.489016   13.280000    ( 0.0000,  0.0000,  0.0000)
  31 Ni     2.489016    2.489016   13.280000    ( 0.0000,  0.0000,  0.0000)
  32 Ni     4.978032    2.489016   13.280000    ( 0.0000,  0.0000,  0.0000)
  33 Ni     0.000000    4.978032   13.280000    ( 0.0000,  0.0000,  0.0000)
  34 Ni     2.489016    4.978032   13.280000    ( 0.0000,  0.0000,  0.0000)
  35 Ni     4.978032    4.978032   13.280000    ( 0.0000,  0.0000,  0.0000)
  36 Mo     0.000000    0.000000   15.480000    ( 0.0000,  0.0000,  0.0000)
  37 Mo     2.060000    2.060000   17.540000    ( 0.0000,  0.0000,  0.0000)
  38 C      2.060000    2.060000   15.480000    ( 0.0000,  0.0000,  0.0000)
  39 Mo     0.000000    4.120000   15.480000    ( 0.0000,  0.0000,  0.0000)
  40 Mo     2.060000    6.180000   17.540000    ( 0.0000,  0.0000,  0.0000)
  41 C      2.060000    6.180000   15.480000    ( 0.0000,  0.0000,  0.0000)
  42 Mo     4.120000    0.000000   15.480000    ( 0.0000,  0.0000,  0.0000)
  43 Mo     6.180000    2.060000   17.540000    ( 0.0000,  0.0000,  0.0000)
  44 C      6.180000    2.060000   15.480000    ( 0.0000,  0.0000,  0.0000)
  45 Mo     4.120000    4.120000   15.480000    ( 0.0000,  0.0000,  0.0000)
  46 Mo     6.180000    6.180000   17.540000    ( 0.0000,  0.0000,  0.0000)
  47 C      6.180000    6.180000   15.480000    ( 0.0000,  0.0000,  0.0000)
  48 Au     1.991786    1.991786   19.340000    ( 0.0000,  0.0000,  0.0000)
  49 Au     1.991786    4.391786   19.340000    ( 0.0000,  0.0000,  0.0000)
  50 Au     4.391786    1.991786   19.340000    ( 0.0000,  0.0000,  0.0000)
  51 Au     4.391786    4.391786   19.340000    ( 0.0000,  0.0000,  0.0000)
  52 H      3.191786    3.191786   20.840000    ( 0.0000,  0.0000,  0.0000)

Unit cell:
           periodic     x           y           z      points  spacing
  1. axis:    yes    7.467048    0.000000    0.000000    36     0.2074
  2. axis:    yes    0.000000    7.467048    0.000000    36     0.2074
  3. axis:    yes    0.000000    0.000000   25.540000   128     0.1995

  Lengths:   7.467048   7.467048  25.540000
  Angles:   90.000000  90.000000  90.000000

Effective grid spacing dv^(1/3) = 0.2048

     iter     time        total  log10-change:
                         energy   eigst   dens
iter:   1 05:12:43 -1443.133607        c
iter:   2 05:14:00 -6642.187332        c -0.81
iter:   3 05:15:11  -514.523017        c -0.35
iter:   4 05:16:23  -478.682381        c -1.32
iter:   5 05:17:39  -484.161949        c -1.21
iter:   6 05:18:57  -436.537257        c -1.39
iter:   7 05:20:10  -427.379223        c -1.52
iter:   8 05:21:23  -407.499209        c -1.57
iter:   9 05:22:35  -400.831351        c -1.54
iter:  10 05:23:47  -389.646347        c -1.52
iter:  11 05:24:58  -398.203589        c -1.66
iter:  12 05:26:16  -392.035506        c -1.70
iter:  13 05:27:29  -389.031552        c -1.65
iter:  14 05:28:40  -404.267210        c -1.80
iter:  15 05:29:51  -402.369225        c -1.70
iter:  16 05:31:08  -407.297138        c -1.68
iter:  17 05:32:20  -399.859062        c -1.69
iter:  18 05:33:34  -481.792935        c -1.72
iter:  19 05:34:47  -390.125512        c -1.23
iter:  20 05:36:06  -382.451380        c -1.89
iter:  21 05:37:17  -384.017353        c -2.16
iter:  22 05:38:28  -382.094208        c -1.99
iter:  23 05:39:45  -381.428271        c -2.23
iter:  24 05:40:58  -382.041010        c -2.25
iter:  25 05:42:13  -381.342877        c -2.25
iter:  26 05:43:24  -381.302366        c -2.39
iter:  27 05:44:38  -382.658670        c -2.42
iter:  28 05:45:55  -381.671580        c -2.12
iter:  29 05:47:06  -382.458734        c -2.29
iter:  30 05:48:17  -381.225686        c -2.16
iter:  31 05:49:36  -381.448498        c -2.56
iter:  32 05:50:54  -381.575874        c -2.48
iter:  33 05:52:08  -381.048109        c -2.39
iter:  34 05:53:19  -381.023687        c -2.77
iter:  35 05:54:30  -380.986080        c -2.84
iter:  36 05:55:46  -380.965339        c -2.86
iter:  37 05:57:00  -380.959803        c -3.07
iter:  38 05:58:10  -380.959762c       c -3.12
iter:  39 05:59:21  -380.946752        c -2.97
iter:  40 06:00:34  -380.945142        c -3.13
iter:  41 06:01:45  -380.945997c       c -3.33
iter:  42 06:03:05  -380.937344        c -3.38
iter:  43 06:04:18  -380.945532        c -3.33
iter:  44 06:05:35  -380.960805        c -3.38
iter:  45 06:06:47  -380.948316        c -3.23
iter:  46 06:07:58  -380.944349        c -3.48
iter:  47 06:09:09  -380.952471        c -3.48
iter:  48 06:10:20  -380.951116        c -3.40
iter:  49 06:11:31  -380.952954c       c -3.45
iter:  50 06:12:44  -380.942500        c -3.43
iter:  51 06:13:59  -380.948984        c -3.25
iter:  52 06:15:14  -380.948871c       c -3.50
iter:  53 06:16:29  -380.946739c       c -3.52
iter:  54 06:17:42  -380.957280        c -3.61
iter:  55 06:18:56  -380.942681        c -3.34
iter:  56 06:20:13  -380.951782        c -3.65
iter:  57 06:21:29  -380.943280        c -3.55
iter:  58 06:22:45  -380.944681        c -3.60
iter:  59 06:23:55  -380.950231c       c -3.81
iter:  60 06:25:09  -380.940312        c -3.54
iter:  61 06:26:25  -380.944050        c -3.76
iter:  62 06:27:41  -380.944175c       c -3.93
iter:  63 06:28:56  -380.944522c       c -3.91
iter:  64 06:30:06  -380.943440c       c -3.92
iter:  65 06:31:18  -380.941220c       c -3.99
iter:  66 06:32:33  -380.949864        c -3.76
iter:  67 06:33:49  -380.948805        c -3.63
iter:  68 06:35:06  -380.942012        c -3.61
iter:  69 06:36:17  -380.942906c       c -4.09c

Converged after 69 iterations.

Dipole moment: (-7.917683, -7.917683, 0.194124) |e|*Ang

Energy contributions relative to reference atoms: (reference = -4436321.586467)

Kinetic:       +219.773967
Potential:     -187.043911
External:        +0.000000
XC:            -410.964156
Entropy (-ST):   -3.769261
Local:           -0.824176
SIC:             +0.000000
--------------------------
Free energy:   -382.827537
Extrapolated:  -380.942906

Showing only first 2 kpts
 Kpt  Band  Eigenvalues  Occupancy
  0   372      1.10846    1.31430
  0   373      1.11489    1.28507
  0   374      1.12126    1.25555
  0   375      1.13614    1.18476

  1   372      1.10718    1.32007
  1   373      1.11409    1.28871
  1   374      1.13259    1.20188
  1   375      1.13799    1.17582


Fermi level: 1.17353

No gap
No difference between direct/indirect transitions
Timing:                              incl.     excl.
-----------------------------------------------------------
Basic WFS set positions:             0.001     0.001   0.0% |
Basis functions set positions:       0.181     0.181   0.0% |
LCAO WFS Initialize:                 0.427     0.091   0.0% |
 Hamiltonian:                        0.335     0.000   0.0% |
  Atomic:                            0.170     0.002   0.0% |
   XC Correction:                    0.168     0.168   0.0% |
  Calculate atomic Hamiltonians:     0.028     0.028   0.0% |
  Communicate:                       0.000     0.000   0.0% |
  Hartree integrate/restrict:        0.006     0.006   0.0% |
  Initialize Hamiltonian:            0.001     0.001   0.0% |
  Poisson:                           0.084     0.006   0.0% |
   Communicate from 1D:              0.008     0.008   0.0% |
   Communicate from 2D:              0.007     0.007   0.0% |
   Communicate to 1D:                0.008     0.008   0.0% |
   Communicate to 2D:                0.011     0.011   0.0% |
   FFT 1D:                           0.009     0.009   0.0% |
   FFT 2D:                           0.035     0.035   0.0% |
  XC 3D grid:                        0.045     0.045   0.0% |
  vbar:                              0.001     0.001   0.0% |
P tci:                               4.157     4.157   0.1% |
SCF-cycle:                        5037.627     0.179   0.0% |
 Density:                         3671.034     0.001   0.0% |
  Atomic density matrices:           1.066     1.066   0.0% |
  Mix:                               7.844     7.844   0.2% |
  Multipole moments:                 0.021     0.021   0.0% |
  Normalize:                         0.008     0.008   0.0% |
  Pseudo density:                 3662.094     0.023   0.0% |
   Calculate density matrix:         8.735     8.735   0.2% |
   Construct density:             3653.080  3653.080  72.4% |----------------------------|
   Symmetrize density:               0.256     0.256   0.0% |
 Hamiltonian:                       23.483     0.003   0.0% |
  Atomic:                           11.532     0.127   0.0% |
   XC Correction:                   11.406    11.406   0.2% |
  Calculate atomic Hamiltonians:     1.895     1.895   0.0% |
  Communicate:                       0.000     0.000   0.0% |
  Hartree integrate/restrict:        0.401     0.401   0.0% |
  Poisson:                           4.939     0.382   0.0% |
   Communicate from 1D:              0.532     0.532   0.0% |
   Communicate from 2D:              0.419     0.419   0.0% |
   Communicate to 1D:                0.503     0.503   0.0% |
   Communicate to 2D:                0.667     0.667   0.0% |
   FFT 1D:                           0.550     0.550   0.0% |
   FFT 2D:                           1.886     1.886   0.0% |
  XC 3D grid:                        4.042     4.042   0.1% |
  vbar:                              0.671     0.671   0.0% |
 LCAO eigensolver:                1342.931     1.910   0.0% |
  Calculate projections:            48.223    48.223   1.0% |
  DenseAtomicCorrection:           208.753   208.753   4.1% |-|
  Distribute overlap matrix:         4.093     4.093   0.1% |
  Orbital Layouts:                 306.320   306.320   6.1% |-|
  Potential matrix:                744.541   744.541  14.7% |-----|
  Sum over cells:                   29.091    29.091   0.6% |
ST tci:                              1.936     1.936   0.0% |
Set symmetry:                        0.000     0.000   0.0% |
TCI: Evaluate splines:               0.560     0.560   0.0% |
mktci:                               0.026     0.026   0.0% |
Other:                               3.729     3.729   0.1% |
-----------------------------------------------------------
Total:                                      5048.645 100.0%

Memory usage: 4.49 GiB
Date: Mon Feb 23 06:36:17 2026
