
  ___ ___ ___ _ _ _  
 |   |   |_  | | | | 
 | | | | | . | | | | 
 |__ |  _|___|_____|  25.7.0
 |___|_|             

User:   mikei@Z790-AORUS-ELITE-AX
Date:   Sat Mar  7 11:12:35 2026
Arch:   x86_64
Pid:    89048
CWD:    /home/mikei/Dokumenty/code/cemea/ocx
Python: 3.10.16
gpaw:   /home/mikei/.pyenv/versions/cemea-env/lib/python3.10/site-packages/gpaw
_gpaw:  /home/mikei/.pyenv/versions/cemea-env/lib/python3.10/site-packages/
        _gpaw.cpython-310-x86_64-linux-gnu.so
ase:    /home/mikei/.pyenv/versions/cemea-env/lib/python3.10/site-packages/ase (version 3.27.0)
numpy:  /home/mikei/.pyenv/versions/cemea-env/lib/python3.10/site-packages/numpy (version 2.2.6)
scipy:  /home/mikei/.pyenv/versions/cemea-env/lib/python3.10/site-packages/scipy (version 1.15.3)
libxc:  2.x.y
units:  Angstrom and eV
cores: 1
OpenMP: False
OMP_NUM_THREADS: 1

Input parameters:
  basis: dzp
  convergence: {density: 0.0001,
                eigenstates: 1e-05,
                energy: 1e-05}
  kpts: [4 4 1]
  mode: lcao

System changes: positions, numbers, cell, pbc, initial_charges, initial_magmoms 

Initialize ...

species:
  Ni:
    name: Nickel
    id: 1802175e8de9ea26d9f4394ec1a7d564
    Z: 28.0
    valence: 16
    core: 12
    charge: 0.0
    file: /home/mikei/.pyenv/versions/cemea-env/lib/python3.10/site-packages/gpaw_data/setups/Ni.LDA.gz
    compensation charges: {type: gauss,
                           rc: 0.36,
                           lmax: 2}
    cutoffs: {filter: 2.14,
              core: 1.98}
    projectors:
      #              energy  rcut
      - 4s(2.00)    -5.858   1.164
      - 3p(6.00)   -71.266   1.207
      - 4p(0.00)    -1.338   1.207
      - 3d(8.00)    -9.141   1.138
      -  s          21.353   1.164
      -  d          18.071   1.138
  
    # LCAO basis set for Ni:
    #   Name: dzp
    #   File: /home/mikei/.pyenv/versions/cemea-env/lib/python3.10/site-packages/gpaw_data/setups/Ni.dzp.basis.gz
    #   Number of radial functions: 9
    #   Number of spherical harmonics: 27
    #     l=0, rc=8.5156 Bohr: 4s-sz confined orbital
    #     l=1, rc=2.9375 Bohr: 3p-sz confined orbital
    #     l=1, rc=12.4062 Bohr: 4p-sz confined orbital
    #     l=2, rc=4.6875 Bohr: 3d-sz confined orbital
    #     l=0, rc=4.9688 Bohr: 4s-dz split-valence wave
    #     l=1, rc=2.0781 Bohr: 3p-dz split-valence wave
    #     l=1, rc=7.5469 Bohr: 4p-dz split-valence wave
    #     l=2, rc=2.9375 Bohr: 3d-dz split-valence wave
    #     l=1, rc=8.5156 Bohr: p-type Gaussian polarization
    #   Number of RI-basis functions 0

  Mo:
    name: Molybdenum
    id: ac24daaf086600a00ce6d19a74574df1
    Z: 42.0
    valence: 14
    core: 28
    charge: 0.0
    file: /home/mikei/.pyenv/versions/cemea-env/lib/python3.10/site-packages/gpaw_data/setups/Mo.LDA.gz
    compensation charges: {type: gauss,
                           rc: 0.38,
                           lmax: 2}
    cutoffs: {filter: 2.16,
              core: 1.42}
    projectors:
      #              energy  rcut
      - 4s(2.00)   -64.384   1.238
      - 5s(1.00)    -4.319   1.238
      - 4p(6.00)   -38.595   1.296
      - 5p(0.00)    -1.161   1.296
      - 4d(5.00)    -3.933   1.296
      -  d          23.278   1.296
  
    # LCAO basis set for Mo:
    #   Name: dzp
    #   File: /home/mikei/.pyenv/versions/cemea-env/lib/python3.10/site-packages/gpaw_data/setups/Mo.dzp.basis.gz
    #   Number of radial functions: 11
    #   Number of spherical harmonics: 29
    #     l=0, rc=3.5469 Bohr: 4s-sz confined orbital
    #     l=0, rc=10.0469 Bohr: 5s-sz confined orbital
    #     l=1, rc=4.0781 Bohr: 4p-sz confined orbital
    #     l=1, rc=14.0938 Bohr: 5p-sz confined orbital
    #     l=2, rc=7.2031 Bohr: 4d-sz confined orbital
    #     l=0, rc=2.1250 Bohr: 4s-dz split-valence wave
    #     l=0, rc=6.1250 Bohr: 5s-dz split-valence wave
    #     l=1, rc=2.5469 Bohr: 4p-dz split-valence wave
    #     l=1, rc=8.7656 Bohr: 5p-dz split-valence wave
    #     l=2, rc=4.2344 Bohr: 4d-dz split-valence wave
    #     l=1, rc=10.0469 Bohr: p-type Gaussian polarization
    #   Number of RI-basis functions 0

  B:
    name: Boron
    id: 02e2e0e88ef95f403158802f6b0f4231
    Z: 5.0
    valence: 3
    core: 2
    charge: 0.0
    file: /home/mikei/.pyenv/versions/cemea-env/lib/python3.10/site-packages/gpaw_data/setups/B.LDA.gz
    compensation charges: {type: gauss,
                           rc: 0.20,
                           lmax: 2}
    cutoffs: {filter: 1.14,
              core: 1.42}
    projectors:
      #              energy  rcut
      - 2s(2.00)    -9.383   0.635
      - 2p(1.00)    -3.714   0.635
      -  s          17.828   0.635
      -  p          23.498   0.635
      -  d           0.000   0.635
  
    # LCAO basis set for B:
    #   Name: dzp
    #   File: /home/mikei/.pyenv/versions/cemea-env/lib/python3.10/site-packages/gpaw_data/setups/B.dzp.basis.gz
    #   Number of radial functions: 5
    #   Number of spherical harmonics: 13
    #     l=0, rc=6.6719 Bohr: 2s-sz confined orbital
    #     l=1, rc=8.2188 Bohr: 2p-sz confined orbital
    #     l=0, rc=3.7500 Bohr: 2s-dz split-valence wave
    #     l=1, rc=4.6094 Bohr: 2p-dz split-valence wave
    #     l=2, rc=8.2188 Bohr: d-type Gaussian polarization
    #   Number of RI-basis functions 0

  Ru:
    name: Ruthenium
    id: ee1c9ca112952e47c1459e90f4850566
    Z: 44.0
    valence: 16
    core: 28
    charge: 0.0
    file: /home/mikei/.pyenv/versions/cemea-env/lib/python3.10/site-packages/gpaw_data/setups/Ru.LDA.gz
    compensation charges: {type: gauss,
                           rc: 0.39,
                           lmax: 2}
    cutoffs: {filter: 2.16,
              core: 1.30}
    projectors:
      #              energy  rcut
      - 4s(2.00)   -76.385   1.281
      - 5s(1.00)    -4.507   1.281
      - 4p(6.00)   -46.536   1.286
      - 5p(0.00)    -1.033   1.286
      - 4d(7.00)    -5.402   1.254
      -  d          21.810   1.254
  
    # LCAO basis set for Ru:
    #   Name: dzp
    #   File: /home/mikei/.pyenv/versions/cemea-env/lib/python3.10/site-packages/gpaw_data/setups/Ru.dzp.basis.gz
    #   Number of radial functions: 11
    #   Number of spherical harmonics: 29
    #     l=0, rc=3.2969 Bohr: 4s-sz confined orbital
    #     l=0, rc=9.6875 Bohr: 5s-sz confined orbital
    #     l=1, rc=3.7656 Bohr: 4p-sz confined orbital
    #     l=1, rc=14.0938 Bohr: 5p-sz confined orbital
    #     l=2, rc=6.3281 Bohr: 4d-sz confined orbital
    #     l=0, rc=2.0781 Bohr: 4s-dz split-valence wave
    #     l=0, rc=5.8281 Bohr: 5s-dz split-valence wave
    #     l=1, rc=2.4219 Bohr: 4p-dz split-valence wave
    #     l=1, rc=8.7031 Bohr: 5p-dz split-valence wave
    #     l=2, rc=3.7500 Bohr: 4d-dz split-valence wave
    #     l=1, rc=9.6875 Bohr: p-type Gaussian polarization
    #   Number of RI-basis functions 0

Reference energy: -2422044.820423  # eV

Spin-paired calculation

Convergence criteria:
 Maximum [total energy] change in last 3 cyles: 1e-05 eV / valence electron
 Maximum integral of absolute [dens]ity change: 0.0001 electrons / valence electron
 Maximum integral of absolute [eigenst]ate change: 1e-05 eV^2 / valence electron
 Maximum number of scf [iter]ations: 333
 (Square brackets indicate name in SCF output, whereas a 'c' in
 the SCF output indicates the quantity has converged.)

Symmetries present (total): 1

  ( 1  0  0)
  ( 0  1  0)
  ( 0  0  1)

16 k-points: 4 x 4 x 1 Monkhorst-Pack grid
8 k-points in the irreducible part of the Brillouin zone
       k-points in crystal coordinates                weights
   0:     0.12500000   -0.37500000    0.00000000          2/16
   1:     0.12500000   -0.12500000    0.00000000          2/16
   2:     0.12500000    0.12500000    0.00000000          2/16
   3:     0.12500000    0.37500000    0.00000000          2/16
   4:     0.37500000   -0.37500000    0.00000000          2/16
   5:     0.37500000   -0.12500000    0.00000000          2/16
   6:     0.37500000    0.12500000    0.00000000          2/16
   7:     0.37500000    0.37500000    0.00000000          2/16

Wave functions: LCAO
  Diagonalizer: Serial LAPACK
  Atomic Correction: dense with blas
  Data-type: complex
 

Occupation numbers: Fermi-Dirac:
  width: 0.1000  # eV
 

Eigensolver
   LCAO using direct dense diagonalizer 

Densities:
  Coarse grid: 32*32*128 grid
  Fine grid: 64*64*256 grid
  Total Charge: 0.000000 

Density mixing:
  Method: separate
  Backend: pulay
  Linear mixing parameter: 0.05
  old densities: 5
  Damping of long wavelength oscillations: 50 

Hamiltonian:
  XC and Coulomb potentials evaluated on a 64*64*256 grid
  Using the LDA Exchange-Correlation functional
  Interpolation: tri-quintic (5. degree polynomial)
  Poisson solver: FastPoissonSolver using
    Stencil: 8*3+1=25 point O(h^6) finite-difference Laplacian
    FFT axes: [np.int64(0), np.int64(1), np.int64(2)]
    FST axes: []
 

Memory estimate:
  Process memory now: 4818.40 MiB
  Calculator: 944.43 MiB
    Density: 194.70 MiB
      Arrays: 26.00 MiB
      Localized functions: 158.70 MiB
      Mixer: 10.00 MiB
    Hamiltonian: 28.80 MiB
      Arrays: 17.00 MiB
      XC: 0.00 MiB
      Poisson: 0.00 MiB
      vbar: 11.80 MiB
    Wavefunctions: 720.93 MiB
      C [qnM]: 65.77 MiB
      S, T [2 x qmm]: 385.14 MiB
      P [aqMi]: 8.09 MiB
      BasisFunctions: 261.92 MiB
      Eigensolver: 0.00 MiB

Total number of cores used: 1

Number of atoms: 48
Number of atomic orbitals: 1256
Number of bands in calculation: 429
Number of valence electrons: 708
Bands to converge: occupied

... initialized

Initializing position-dependent things.

Density initialized from atomic densities
                                         
                                         
                                         
                                         
                                         
                Ru   Ru                  
              Ru    Ru                   
              B      B                   
            B      B                     
         Mo     Mo                       
                                         
       Mo      Moi    Ni    Ni           
                                         
           Ni    NNi   NNi   Ni          
       Ni   NNi   NNi   Ni               
                                         
        Ni    Ni   NNi   Ni    Ni        
               Ni    Ni    Ni            
           Ni    Ni    Ni                
                Ni    Ni    Ni           
           Ni     Ni    Ni               
       Ni    Ni    Ni                    
                                         
                                         
                                         
                                         

Atomic positions and initial magnetic moments

Positions:
   0 Ni     0.000000    0.000000    8.000000    ( 0.0000,  0.0000,  0.0000)
   1 Ni     2.489016    0.000000    8.000000    ( 0.0000,  0.0000,  0.0000)
   2 Ni     4.978032    0.000000    8.000000    ( 0.0000,  0.0000,  0.0000)
   3 Ni     1.244508    2.155551    8.000000    ( 0.0000,  0.0000,  0.0000)
   4 Ni     3.733524    2.155551    8.000000    ( 0.0000,  0.0000,  0.0000)
   5 Ni     6.222540    2.155551    8.000000    ( 0.0000,  0.0000,  0.0000)
   6 Ni     2.489016    4.311102    8.000000    ( 0.0000,  0.0000,  0.0000)
   7 Ni     4.978032    4.311102    8.000000    ( 0.0000,  0.0000,  0.0000)
   8 Ni     7.467048    4.311102    8.000000    ( 0.0000,  0.0000,  0.0000)
   9 Ni     1.244508    0.718517   10.032273    ( 0.0000,  0.0000,  0.0000)
  10 Ni     3.733524    0.718517   10.032273    ( 0.0000,  0.0000,  0.0000)
  11 Ni     6.222540    0.718517   10.032273    ( 0.0000,  0.0000,  0.0000)
  12 Ni     2.489016    2.874068   10.032273    ( 0.0000,  0.0000,  0.0000)
  13 Ni     4.978032    2.874068   10.032273    ( 0.0000,  0.0000,  0.0000)
  14 Ni     7.467048    2.874068   10.032273    ( 0.0000,  0.0000,  0.0000)
  15 Ni     3.733524    5.029619   10.032273    ( 0.0000,  0.0000,  0.0000)
  16 Ni     6.222540    5.029619   10.032273    ( 0.0000,  0.0000,  0.0000)
  17 Ni     8.711556    5.029619   10.032273    ( 0.0000,  0.0000,  0.0000)
  18 Ni     0.000000    1.437034   12.064546    ( 0.0000,  0.0000,  0.0000)
  19 Ni     2.489016    1.437034   12.064546    ( 0.0000,  0.0000,  0.0000)
  20 Ni     4.978032    1.437034   12.064546    ( 0.0000,  0.0000,  0.0000)
  21 Ni     1.244508    3.592585   12.064546    ( 0.0000,  0.0000,  0.0000)
  22 Ni     3.733524    3.592585   12.064546    ( 0.0000,  0.0000,  0.0000)
  23 Ni     6.222540    3.592585   12.064546    ( 0.0000,  0.0000,  0.0000)
  24 Ni     2.489016    5.748136   12.064546    ( 0.0000,  0.0000,  0.0000)
  25 Ni     4.978032    5.748136   12.064546    ( 0.0000,  0.0000,  0.0000)
  26 Ni     7.467048    5.748136   12.064546    ( 0.0000,  0.0000,  0.0000)
  27 Ni     0.000000    0.000000   14.096819    ( 0.0000,  0.0000,  0.0000)
  28 Ni     2.489016    0.000000   14.096819    ( 0.0000,  0.0000,  0.0000)
  29 Ni     4.978032    0.000000   14.096819    ( 0.0000,  0.0000,  0.0000)
  30 Ni     1.244508    2.155551   14.096819    ( 0.0000,  0.0000,  0.0000)
  31 Ni     3.733524    2.155551   14.096819    ( 0.0000,  0.0000,  0.0000)
  32 Ni     6.222540    2.155551   14.096819    ( 0.0000,  0.0000,  0.0000)
  33 Ni     2.489016    4.311102   14.096819    ( 0.0000,  0.0000,  0.0000)
  34 Ni     4.978032    4.311102   14.096819    ( 0.0000,  0.0000,  0.0000)
  35 Ni     7.467048    4.311102   14.096819    ( 0.0000,  0.0000,  0.0000)
  36 Mo     0.000000    0.000000   16.296819    ( 0.0000,  0.0000,  0.0000)
  37 B      1.525000    1.525000   17.821819    ( 0.0000,  0.0000,  0.0000)
  38 Mo     0.000000    3.050000   16.296819    ( 0.0000,  0.0000,  0.0000)
  39 B      1.525000    4.575000   17.821819    ( 0.0000,  0.0000,  0.0000)
  40 Mo     3.050000    0.000000   16.296819    ( 0.0000,  0.0000,  0.0000)
  41 B      4.575000    1.525000   17.821819    ( 0.0000,  0.0000,  0.0000)
  42 Mo     3.050000    3.050000   16.296819    ( 0.0000,  0.0000,  0.0000)
  43 B      4.575000    4.575000   17.821819    ( 0.0000,  0.0000,  0.0000)
  44 Ru     2.525169    1.420450   19.621819    ( 0.0000,  0.0000,  0.0000)
  45 Ru     2.525169    3.820450   19.621819    ( 0.0000,  0.0000,  0.0000)
  46 Ru     4.925169    1.420450   19.621819    ( 0.0000,  0.0000,  0.0000)
  47 Ru     4.925169    3.820450   19.621819    ( 0.0000,  0.0000,  0.0000)

Unit cell:
           periodic     x           y           z      points  spacing
  1. axis:    yes    7.467048    0.000000    0.000000    32     0.2021
  2. axis:    yes    3.733524    6.466653    0.000000    32     0.2021
  3. axis:    yes    0.000000    0.000000   25.821819   128     0.2017

  Lengths:   7.467048   7.467048  25.821819
  Angles:   90.000000  90.000000  60.000000

Effective grid spacing dv^(1/3) = 0.2119

     iter     time        total  log10-change:
                         energy   eigst   dens
iter:   1 11:14:13  -984.460809        c
iter:   2 11:16:49 -4295.194211        c -0.97
iter:   3 11:19:15  -578.482760        c -0.41
iter:   4 11:21:46  -411.585014        c -1.22
iter:   5 11:24:11  -434.630986        c -1.43
iter:   6 11:26:47  -394.399147        c -1.45
iter:   7 11:28:50  -394.344718        c -1.57
iter:   8 11:31:01  -399.681639        c -1.46
iter:   9 11:33:16  -409.255598        c -1.54
iter:  10 11:35:28  -410.595962        c -1.54
iter:  11 11:37:59  -393.122852        c -1.58
iter:  12 11:40:31  -382.685186        c -1.55
iter:  13 11:43:05  -374.438618        c -1.66
iter:  14 11:45:20  -371.213225        c -1.72
iter:  15 11:47:35  -377.738464        c -1.76
iter:  16 11:49:54  -379.861937        c -1.71
iter:  17 11:52:27  -372.396617        c -1.63
iter:  18 11:54:31  -371.848405        c -1.78
iter:  19 11:56:55  -382.990390        c -1.81
iter:  20 11:59:18  -369.648581        c -1.76
iter:  21 12:01:22  -384.047948        c -1.94
iter:  22 12:03:13  -368.204943        c -1.59
iter:  23 12:05:38  -375.596423        c -2.07
iter:  24 12:07:56  -380.249716        c -1.88
iter:  25 12:10:27  -374.222366        c -1.82
iter:  26 12:12:31  -366.595790        c -1.90
iter:  27 12:14:18  -367.591199        c -2.19
iter:  28 12:16:45  -366.748862        c -2.04
iter:  29 12:19:18  -366.691627        c -2.29
iter:  30 12:21:28  -368.756071        c -2.30
iter:  31 12:23:39  -370.351786        c -2.07
iter:  32 12:26:03  -368.540357        c -1.99
iter:  33 12:28:02  -366.527498        c -2.11
iter:  34 12:29:53  -366.587209        c -2.64
iter:  35 12:32:48  -366.562060        c -2.51
iter:  36 12:34:59  -366.368149        c -2.57
iter:  37 12:37:31  -366.423692        c -2.76
iter:  38 12:39:44  -366.340414        c -2.72
iter:  39 12:42:03  -366.350053        c -2.89
iter:  40 12:44:00  -366.389705        c -2.83
iter:  41 12:46:17  -366.384383        c -2.80
iter:  42 12:48:58  -366.297752        c -2.62
iter:  43 12:51:30  -366.470849        c -3.14
iter:  44 12:53:32  -366.283096        c -2.69
iter:  45 12:56:10  -366.282685        c -3.28
iter:  46 12:58:19  -366.273622        c -3.29
iter:  47 13:00:12  -366.287563        c -3.35
iter:  48 13:02:37  -366.301143        c -3.12
iter:  49 13:04:40  -366.345237        c -3.18
iter:  50 13:06:49  -366.270913        c -2.99
iter:  51 13:09:09  -366.273512        c -3.48
iter:  52 13:10:55  -366.273065c       c -3.61
iter:  53 13:12:52  -366.273285c       c -3.61
iter:  54 13:15:23  -366.270716c       c -3.74
iter:  55 13:17:38  -366.275864c       c -3.39
iter:  56 13:20:16  -366.275290c       c -3.84
iter:  57 13:22:40  -366.275766c       c -3.75
iter:  58 13:24:49  -366.271903c       c -3.86
iter:  59 13:26:44  -366.272756c       c -3.85
iter:  60 13:28:42  -366.275275c       c -3.89
iter:  61 13:31:07  -366.274318c       c -4.12c

Converged after 61 iterations.

Dipole moment: (-30.051001, -11.536700, 0.577959) |e|*Ang

Energy contributions relative to reference atoms: (reference = -2422044.820423)

Kinetic:        +45.127457
Potential:      -22.545303
External:        +0.000000
XC:            -386.104297
Entropy (-ST):   -3.638377
Local:           -0.932987
SIC:             +0.000000
--------------------------
Free energy:   -368.093507
Extrapolated:  -366.274318

Showing only first 2 kpts
 Kpt  Band  Eigenvalues  Occupancy
  0   352      1.14527    1.08742
  0   353      1.17943    0.91706
  0   354      1.19086    0.86060
  0   355      1.19693    0.83100

  1   352      1.08496    1.37069
  1   353      1.08946    1.35112
  1   354      1.09839    1.31136
  1   355      1.12112    1.20544


Fermi level: 1.16280

No gap
No difference between direct/indirect transitions
Timing:                              incl.     excl.
-----------------------------------------------------------
Basic WFS set positions:             0.000     0.000   0.0% |
Basis functions set positions:       0.177     0.177   0.0% |
LCAO WFS Initialize:                 0.513     0.119   0.0% |
 Hamiltonian:                        0.393     0.000   0.0% |
  Atomic:                            0.249     0.002   0.0% |
   XC Correction:                    0.247     0.247   0.0% |
  Calculate atomic Hamiltonians:     0.029     0.029   0.0% |
  Communicate:                       0.000     0.000   0.0% |
  Hartree integrate/restrict:        0.011     0.011   0.0% |
  Initialize Hamiltonian:            0.001     0.001   0.0% |
  Poisson:                           0.064     0.004   0.0% |
   Communicate from 1D:              0.006     0.006   0.0% |
   Communicate from 2D:              0.008     0.008   0.0% |
   Communicate to 1D:                0.006     0.006   0.0% |
   Communicate to 2D:                0.009     0.009   0.0% |
   FFT 1D:                           0.008     0.008   0.0% |
   FFT 2D:                           0.023     0.023   0.0% |
  XC 3D grid:                        0.035     0.035   0.0% |
  vbar:                              0.004     0.004   0.0% |
P tci:                               4.984     4.984   0.1% |
SCF-cycle:                        8297.518     0.275   0.0% |
 Density:                         4180.670     0.001   0.0% |
  Atomic density matrices:           1.120     1.120   0.0% |
  Mix:                               8.091     8.091   0.1% |
  Multipole moments:                 0.017     0.017   0.0% |
  Normalize:                         0.006     0.006   0.0% |
  Pseudo density:                 4171.436     0.027   0.0% |
   Calculate density matrix:        13.094    13.094   0.2% |
   Construct density:             4158.313  4158.313  50.0% |-------------------|
   Symmetrize density:               0.001     0.001   0.0% |
 Hamiltonian:                       19.026     0.003   0.0% |
  Atomic:                            9.541     0.110   0.0% |
   XC Correction:                    9.431     9.431   0.1% |
  Calculate atomic Hamiltonians:     1.431     1.431   0.0% |
  Communicate:                       0.000     0.000   0.0% |
  Hartree integrate/restrict:        0.616     0.616   0.0% |
  Poisson:                           3.419     0.249   0.0% |
   Communicate from 1D:              0.346     0.346   0.0% |
   Communicate from 2D:              0.398     0.398   0.0% |
   Communicate to 1D:                0.352     0.352   0.0% |
   Communicate to 2D:                0.440     0.440   0.0% |
   FFT 1D:                           0.392     0.392   0.0% |
   FFT 2D:                           1.242     1.242   0.0% |
  XC 3D grid:                        3.374     3.374   0.0% |
  vbar:                              0.642     0.642   0.0% |
 LCAO eigensolver:                4097.547     1.612   0.0% |
  Calculate projections:           105.059   105.059   1.3% ||
  DenseAtomicCorrection:           293.298   293.298   3.5% ||
  Distribute overlap matrix:         3.609     3.609   0.0% |
  Orbital Layouts:                2889.071  2889.071  34.8% |-------------|
  Potential matrix:                662.980   662.980   8.0% |--|
  Sum over cells:                  141.919   141.919   1.7% ||
ST tci:                              2.203     2.203   0.0% |
Set symmetry:                        0.000     0.000   0.0% |
TCI: Evaluate splines:               0.640     0.640   0.0% |
mktci:                               0.028     0.028   0.0% |
Other:                               5.253     5.253   0.1% |
-----------------------------------------------------------
Total:                                      8311.316 100.0%

Memory usage: 4.71 GiB
Date: Sat Mar  7 13:31:07 2026
