
  ___ ___ ___ _ _ _  
 |   |   |_  | | | | 
 | | | | | . | | | | 
 |__ |  _|___|_____|  25.7.0
 |___|_|             

User:   ubuntu@third-test
Date:   Mon Feb 16 11:36:20 2026
Arch:   x86_64
Pid:    2718679
CWD:    /mnt/vdd1/work/cemea/fairchem/src/fairchem/applications/ocx/mo_h_adsorption_workflow
Python: 3.10.16
gpaw:   /home/ubuntu/.pyenv/versions/cemea-env/lib/python3.10/site-packages/gpaw
_gpaw:  /home/ubuntu/.pyenv/versions/cemea-env/lib/python3.10/site-packages/
        _gpaw.cpython-310-x86_64-linux-gnu.so
ase:    /home/ubuntu/.pyenv/versions/cemea-env/lib/python3.10/site-packages/ase (version 3.27.0)
numpy:  /home/ubuntu/.pyenv/versions/cemea-env/lib/python3.10/site-packages/numpy (version 2.2.6)
scipy:  /home/ubuntu/.pyenv/versions/cemea-env/lib/python3.10/site-packages/scipy (version 1.15.3)
libxc:  2.x.y
units:  Angstrom and eV
cores: 1
OpenMP: False
OMP_NUM_THREADS: 1

Input parameters:
  basis: dzp
  convergence: {density: 0.0001,
                eigenstates: 1e-05,
                energy: 1e-05}
  kpts: [4 4 1]
  mode: lcao

System changes: positions, numbers, cell, pbc, initial_charges, initial_magmoms 

Initialize ...

species:
  Mo:
    name: Molybdenum
    id: ac24daaf086600a00ce6d19a74574df1
    Z: 42.0
    valence: 14
    core: 28
    charge: 0.0
    file: /home/ubuntu/.pyenv/versions/cemea-env/lib/python3.10/site-packages/gpaw_data/setups/Mo.LDA.gz
    compensation charges: {type: gauss,
                           rc: 0.38,
                           lmax: 2}
    cutoffs: {filter: 2.16,
              core: 1.42}
    projectors:
      #              energy  rcut
      - 4s(2.00)   -64.384   1.238
      - 5s(1.00)    -4.319   1.238
      - 4p(6.00)   -38.595   1.296
      - 5p(0.00)    -1.161   1.296
      - 4d(5.00)    -3.933   1.296
      -  d          23.278   1.296
  
    # LCAO basis set for Mo:
    #   Name: dzp
    #   File: /home/ubuntu/.pyenv/versions/cemea-env/lib/python3.10/site-packages/gpaw_data/setups/Mo.dzp.basis.gz
    #   Number of radial functions: 11
    #   Number of spherical harmonics: 29
    #     l=0, rc=3.5469 Bohr: 4s-sz confined orbital
    #     l=0, rc=10.0469 Bohr: 5s-sz confined orbital
    #     l=1, rc=4.0781 Bohr: 4p-sz confined orbital
    #     l=1, rc=14.0938 Bohr: 5p-sz confined orbital
    #     l=2, rc=7.2031 Bohr: 4d-sz confined orbital
    #     l=0, rc=2.1250 Bohr: 4s-dz split-valence wave
    #     l=0, rc=6.1250 Bohr: 5s-dz split-valence wave
    #     l=1, rc=2.5469 Bohr: 4p-dz split-valence wave
    #     l=1, rc=8.7656 Bohr: 5p-dz split-valence wave
    #     l=2, rc=4.2344 Bohr: 4d-dz split-valence wave
    #     l=1, rc=10.0469 Bohr: p-type Gaussian polarization
    #   Number of RI-basis functions 0

  Au:
    name: Gold
    id: a44207148b704df7bec07bf25e8feca8
    Z: 79.0
    valence: 11
    core: 68
    charge: 0.0
    file: /home/ubuntu/.pyenv/versions/cemea-env/lib/python3.10/site-packages/gpaw_data/setups/Au.LDA.gz
    compensation charges: {type: gauss,
                           rc: 0.42,
                           lmax: 2}
    cutoffs: {filter: 2.33,
              core: 2.81}
    projectors:
      #              energy  rcut
      - 6s(1.00)    -6.048   1.323
      - 6p(0.00)    -0.888   1.323
      - 5d(10.00)    -7.129   1.323
      -  s          21.163   1.323
      -  p          26.323   1.323
      -  d          20.082   1.323
  
    # LCAO basis set for Au:
    #   Name: dzp
    #   File: /home/ubuntu/.pyenv/versions/cemea-env/lib/python3.10/site-packages/gpaw_data/setups/Au.dzp.basis.gz
    #   Number of radial functions: 5
    #   Number of spherical harmonics: 15
    #     l=0, rc=8.5938 Bohr: 6s-sz confined orbital
    #     l=2, rc=5.9219 Bohr: 5d-sz confined orbital
    #     l=0, rc=4.9844 Bohr: 6s-dz split-valence wave
    #     l=2, rc=3.5156 Bohr: 5d-dz split-valence wave
    #     l=1, rc=8.5938 Bohr: p-type Gaussian polarization
    #   Number of RI-basis functions 0

  N:
    name: Nitrogen
    id: c467cdfa1b75f62c8f7a0469921b1cfb
    Z: 7.0
    valence: 5
    core: 2
    charge: 0.0
    file: /home/ubuntu/.pyenv/versions/cemea-env/lib/python3.10/site-packages/gpaw_data/setups/N.LDA.gz
    compensation charges: {type: gauss,
                           rc: 0.18,
                           lmax: 2}
    cutoffs: {filter: 1.11,
              core: 0.96}
    projectors:
      #              energy  rcut
      - 2s(2.00)   -18.420   0.603
      - 2p(3.00)    -7.237   0.529
      -  s           8.791   0.603
      -  p          19.974   0.529
      -  d           0.000   0.577
  
    # LCAO basis set for N:
    #   Name: dzp
    #   File: /home/ubuntu/.pyenv/versions/cemea-env/lib/python3.10/site-packages/gpaw_data/setups/N.dzp.basis.gz
    #   Number of radial functions: 5
    #   Number of spherical harmonics: 13
    #     l=0, rc=4.8594 Bohr: 2s-sz confined orbital
    #     l=1, rc=6.0625 Bohr: 2p-sz confined orbital
    #     l=0, rc=2.6094 Bohr: 2s-dz split-valence wave
    #     l=1, rc=3.2656 Bohr: 2p-dz split-valence wave
    #     l=2, rc=6.0625 Bohr: d-type Gaussian polarization
    #   Number of RI-basis functions 0

  H:
    name: Hydrogen
    id: 4766778ce56282eaa64abeb28b7c1de3
    Z: 1.0
    valence: 1
    core: 0
    charge: 0.0
    file: /home/ubuntu/.pyenv/versions/cemea-env/lib/python3.10/site-packages/gpaw_data/setups/H.LDA.gz
    compensation charges: {type: gauss,
                           rc: 0.15,
                           lmax: 2}
    cutoffs: {filter: 0.85,
              core: 0.53}
    projectors:
      #              energy  rcut
      - 1s(1.00)    -6.353   0.476
      -  s          20.858   0.476
      -  p           0.000   0.476
  
    # LCAO basis set for H:
    #   Name: dzp
    #   File: /home/ubuntu/.pyenv/versions/cemea-env/lib/python3.10/site-packages/gpaw_data/setups/H.dzp.basis.gz
    #   Number of radial functions: 3
    #   Number of spherical harmonics: 5
    #     l=0, rc=6.4219 Bohr: 1s-sz confined orbital
    #     l=0, rc=3.6094 Bohr: 1s-dz split-valence wave
    #     l=1, rc=6.4219 Bohr: p-type Gaussian polarization
    #   Number of RI-basis functions 0

Reference energy: -1292347.890931  # eV

Spin-paired calculation

Convergence criteria:
 Maximum [total energy] change in last 3 cyles: 1e-05 eV / valence electron
 Maximum integral of absolute [dens]ity change: 0.0001 electrons / valence electron
 Maximum integral of absolute [eigenst]ate change: 1e-05 eV^2 / valence electron
 Maximum number of scf [iter]ations: 333
 (Square brackets indicate name in SCF output, whereas a 'c' in
 the SCF output indicates the quantity has converged.)

Symmetries present (total): 2

  ( 1  0  0)  ( 0  1  0)
  ( 0  1  0)  ( 1  0  0)
  ( 0  0  1)  ( 0  0  1)

16 k-points: 4 x 4 x 1 Monkhorst-Pack grid
6 k-points in the irreducible part of the Brillouin zone
       k-points in crystal coordinates                weights
   0:     0.12500000   -0.12500000    0.00000000          2/16
   1:     0.12500000    0.12500000    0.00000000          2/16
   2:     0.37500000   -0.37500000    0.00000000          2/16
   3:     0.37500000   -0.12500000    0.00000000          4/16
   4:     0.37500000    0.12500000    0.00000000          4/16
   5:     0.37500000    0.37500000    0.00000000          2/16

Wave functions: LCAO
  Diagonalizer: Serial LAPACK
  Atomic Correction: dense with blas
  Data-type: complex
 

Occupation numbers: Fermi-Dirac:
  width: 0.1000  # eV
 

Eigensolver
   LCAO using direct dense diagonalizer 

Densities:
  Coarse grid: 40*40*92 grid
  Fine grid: 80*80*184 grid
  Total Charge: 0.000000 

Density mixing:
  Method: separate
  Backend: pulay
  Linear mixing parameter: 0.05
  old densities: 5
  Damping of long wavelength oscillations: 50 

Hamiltonian:
  XC and Coulomb potentials evaluated on a 80*80*184 grid
  Using the LDA Exchange-Correlation functional
  Interpolation: tri-quintic (5. degree polynomial)
  Poisson solver: FastPoissonSolver using
    Stencil: 6*3+1=19 point O(h^6) finite-difference Laplacian
    FFT axes: [np.int64(0), np.int64(1), np.int64(2)]
    FST axes: []
 

Memory estimate:
  Process memory now: 1323.74 MiB
  Calculator: 193.37 MiB
    Density: 80.78 MiB
      Arrays: 29.20 MiB
      Localized functions: 40.35 MiB
      Mixer: 11.23 MiB
    Hamiltonian: 21.77 MiB
      Arrays: 19.09 MiB
      XC: 0.00 MiB
      Poisson: 0.00 MiB
      vbar: 2.68 MiB
    Wavefunctions: 90.82 MiB
      C [qnM]: 2.06 MiB
      S, T [2 x qmm]: 13.85 MiB
      P [aqMi]: 0.32 MiB
      BasisFunctions: 74.60 MiB
      Eigensolver: 0.00 MiB

Total number of cores used: 1

Number of atoms: 13
Number of atomic orbitals: 275
Number of bands in calculation: 82
Number of valence electrons: 130
Bands to converge: occupied

... initialized

Initializing position-dependent things.

Density initialized from atomic densities
      .-------------------.  
     /|                   |  
    / |                   |  
   /  |                   |  
  /   |                   |  
 *    |                   |  
 |    |                   |  
 |    |                   |  
 |    |                   |  
 |    |                   |  
 |    |                   |  
 |    |   MH        Mo    |  
 |    |                   |  
 |    |Au        Mo       |  
 |    |   N         N     |  
 |  Mo|       Mo          |  
 |    |N         N        |  
 Mo   |    Mo             |  
 |    |                   |  
 |    |                   |  
 |    |                   |  
 |    |                   |  
 |    .-------------------.  
 |   /                   /   
 |  /                   /    
 | /                   /     
 |/                   /      
 *-------------------*       

Atomic positions and initial magnetic moments

Positions:
   0 Mo     0.000000    0.000000    8.000000    ( 0.0000,  0.0000,  0.0000)
   1 Au     2.080000    2.080000   10.080000    ( 0.0000,  0.0000,  0.0000)
   2 N      2.080000    2.080000    8.000000    ( 0.0000,  0.0000,  0.0000)
   3 Mo     0.000000    4.160000    8.000000    ( 0.0000,  0.0000,  0.0000)
   4 Mo     2.080000    6.240000   10.080000    ( 0.0000,  0.0000,  0.0000)
   5 N      2.080000    6.240000    8.000000    ( 0.0000,  0.0000,  0.0000)
   6 Mo     4.160000    0.000000    8.000000    ( 0.0000,  0.0000,  0.0000)
   7 Mo     6.240000    2.080000   10.080000    ( 0.0000,  0.0000,  0.0000)
   8 N      6.240000    2.080000    8.000000    ( 0.0000,  0.0000,  0.0000)
   9 Mo     4.160000    4.160000    8.000000    ( 0.0000,  0.0000,  0.0000)
  10 Mo     6.240000    6.240000   10.080000    ( 0.0000,  0.0000,  0.0000)
  11 N      6.240000    6.240000    8.000000    ( 0.0000,  0.0000,  0.0000)
  12 H      3.466667    3.466667   11.580000    ( 0.0000,  0.0000,  0.0000)

Unit cell:
           periodic     x           y           z      points  spacing
  1. axis:    yes    8.320000    0.000000    0.000000    40     0.2080
  2. axis:    yes    0.000000    8.320000    0.000000    40     0.2080
  3. axis:    yes    0.000000    0.000000   18.080000    92     0.1965

  Lengths:   8.320000   8.320000  18.080000
  Angles:   90.000000  90.000000  90.000000

Effective grid spacing dv^(1/3) = 0.2041

     iter     time        total  log10-change:
                         energy   eigst   dens
iter:   1 11:37:34   -87.647427        c
iter:   2 11:38:49   -81.979419        c -0.88
iter:   3 11:40:02   -79.249876        c -0.99
iter:   4 11:41:16   -74.872728        c -1.00
iter:   5 11:42:26   -74.093847        c -1.18
iter:   6 11:43:41   -72.665395        c -1.23
iter:   7 11:44:58   -72.185208        c -1.34
iter:   8 11:46:13   -71.879153        c -1.49
iter:   9 11:47:28   -71.864818        c -1.73
iter:  10 11:48:50   -71.849959        c -1.71
iter:  11 11:50:10   -71.820982        c -1.73
iter:  12 11:51:21   -71.792766        c -1.86
iter:  13 11:52:37   -71.766263        c -1.95
iter:  14 11:53:56   -71.745926        c -2.00
iter:  15 11:55:15   -71.721211        c -2.01
iter:  16 11:56:34   -71.697744        c -2.08
iter:  17 11:57:55   -71.681137        c -2.15
iter:  18 11:58:55   -71.672972        c -2.25
iter:  19 12:00:12   -71.666335        c -2.31
iter:  20 12:01:37   -71.665456        c -2.41
iter:  21 12:02:57   -71.664571        c -2.49
iter:  22 12:04:12   -71.664884c       c -2.59
iter:  23 12:05:30   -71.663714c       c -2.68
iter:  24 12:06:46   -71.664375c       c -2.74
iter:  25 12:07:58   -71.663675c       c -2.80
iter:  26 12:09:19   -71.662943        c -2.87
iter:  27 12:10:33   -71.662525c       c -2.90
iter:  28 12:11:44   -71.661882c       c -2.93
iter:  29 12:13:12   -71.661260c       c -3.02
iter:  30 12:14:22   -71.660802c       c -3.00
iter:  31 12:15:38   -71.660321c       c -3.10
iter:  32 12:16:58   -71.659884c       c -3.14
iter:  33 12:18:19   -71.659632c       c -3.15
iter:  34 12:19:33   -71.659315c       c -3.22
iter:  35 12:20:49   -71.659322c       c -3.27
iter:  36 12:22:12   -71.659166c       c -3.27
iter:  37 12:23:26   -71.659065c       c -3.36
iter:  38 12:24:39   -71.659026c       c -3.40
iter:  39 12:25:59   -71.659033c       c -3.45
iter:  40 12:27:20   -71.659045c       c -3.51
iter:  41 12:28:28   -71.659092c       c -3.55
iter:  42 12:29:42   -71.659127c       c -3.52
iter:  43 12:30:57   -71.659150c       c -3.69
iter:  44 12:32:11   -71.659177c       c -3.81
iter:  45 12:33:23   -71.659214c       c -3.82
iter:  46 12:34:38   -71.659225c       c -3.84
iter:  47 12:35:55   -71.659235c       c -3.87
iter:  48 12:37:13   -71.659242c       c -3.97
iter:  49 12:38:30   -71.659240c       c -3.94
iter:  50 12:39:46   -71.659238c       c -4.01c

Converged after 50 iterations.

Dipole moment: (-5.189663, -5.189663, 0.133973) |e|*Ang

Energy contributions relative to reference atoms: (reference = -1292347.890931)

Kinetic:       -200.151735
Potential:     +138.592716
External:        +0.000000
XC:             -11.448095
Entropy (-ST):   -1.387152
Local:           +2.041452
SIC:             +0.000000
--------------------------
Free energy:    -72.352813
Extrapolated:   -71.659238

Showing only first 2 kpts
 Kpt  Band  Eigenvalues  Occupancy
  0    63     -2.33292    1.33413
  0    64     -2.29084    1.13619
  0    65     -2.25429    0.95434
  0    66     -2.20903    0.73451

  1    63     -2.32759    1.31022
  1    64     -2.29344    1.14895
  1    65     -2.25267    0.94623
  1    66     -2.20974    0.73780


Fermi level: -2.26343

No gap
No difference between direct/indirect transitions
Timing:                              incl.     excl.
-----------------------------------------------------------
Basic WFS set positions:             0.001     0.001   0.0% |
Basis functions set positions:       0.087     0.087   0.0% |
LCAO WFS Initialize:                 0.420     0.056   0.0% |
 Hamiltonian:                        0.364     0.000   0.0% |
  Atomic:                            0.081     0.001   0.0% |
   XC Correction:                    0.079     0.079   0.0% |
  Calculate atomic Hamiltonians:     0.008     0.008   0.0% |
  Communicate:                       0.000     0.000   0.0% |
  Hartree integrate/restrict:        0.054     0.054   0.0% |
  Initialize Hamiltonian:            0.001     0.001   0.0% |
  Poisson:                           0.129     0.005   0.0% |
   Communicate from 1D:              0.019     0.019   0.0% |
   Communicate from 2D:              0.017     0.017   0.0% |
   Communicate to 1D:                0.021     0.021   0.0% |
   Communicate to 2D:                0.021     0.021   0.0% |
   FFT 1D:                           0.017     0.017   0.0% |
   FFT 2D:                           0.028     0.028   0.0% |
  XC 3D grid:                        0.058     0.058   0.0% |
  vbar:                              0.034     0.034   0.0% |
P tci:                               0.436     0.436   0.0% |
SCF-cycle:                        3803.184     0.065   0.0% |
 Density:                          400.453     0.001   0.0% |
  Atomic density matrices:           0.152     0.152   0.0% |
  Mix:                              16.557    16.557   0.4% |
  Multipole moments:                 0.012     0.012   0.0% |
  Normalize:                         0.004     0.004   0.0% |
  Pseudo density:                  383.727     0.029   0.0% |
   Calculate density matrix:         9.279     9.279   0.2% |
   Construct density:              374.225   374.225   9.8% |---|
   Symmetrize density:               0.194     0.194   0.0% |
 Hamiltonian:                       17.398     0.004   0.0% |
  Atomic:                            4.057     0.055   0.0% |
   XC Correction:                    4.002     4.002   0.1% |
  Calculate atomic Hamiltonians:     0.423     0.423   0.0% |
  Communicate:                       0.000     0.000   0.0% |
  Hartree integrate/restrict:        1.843     1.843   0.0% |
  Poisson:                           6.614     0.324   0.0% |
   Communicate from 1D:              1.060     1.060   0.0% |
   Communicate from 2D:              0.911     0.911   0.0% |
   Communicate to 1D:                0.815     0.815   0.0% |
   Communicate to 2D:                1.103     1.103   0.0% |
   FFT 1D:                           0.909     0.909   0.0% |
   FFT 2D:                           1.492     1.492   0.0% |
  XC 3D grid:                        3.562     3.562   0.1% |
  vbar:                              0.894     0.894   0.0% |
 LCAO eigensolver:                3385.268     0.080   0.0% |
  Calculate projections:            11.067    11.067   0.3% |
  DenseAtomicCorrection:            35.775    35.775   0.9% |
  Distribute overlap matrix:         0.059     0.059   0.0% |
  Orbital Layouts:                3236.734  3236.734  85.0% |---------------------------------|
  Potential matrix:                 93.117    93.117   2.4% ||
  Sum over cells:                    8.435     8.435   0.2% |
ST tci:                              0.273     0.273   0.0% |
Set symmetry:                        0.001     0.001   0.0% |
TCI: Evaluate splines:               0.625     0.625   0.0% |
mktci:                               0.006     0.006   0.0% |
Other:                               0.864     0.864   0.0% |
-----------------------------------------------------------
Total:                                      3805.897 100.0%

Memory usage: 1.29 GiB
Date: Mon Feb 16 12:39:46 2026
