
  ___ ___ ___ _ _ _  
 |   |   |_  | | | | 
 | | | | | . | | | | 
 |__ |  _|___|_____|  25.7.0
 |___|_|             

User:   mikei@Z790-AORUS-ELITE-AX
Date:   Mon Feb 23 15:52:42 2026
Arch:   x86_64
Pid:    89048
CWD:    /home/mikei/Dokumenty/code/cemea/ocx
Python: 3.10.16
gpaw:   /home/mikei/.pyenv/versions/cemea-env/lib/python3.10/site-packages/gpaw
_gpaw:  /home/mikei/.pyenv/versions/cemea-env/lib/python3.10/site-packages/
        _gpaw.cpython-310-x86_64-linux-gnu.so
ase:    /home/mikei/.pyenv/versions/cemea-env/lib/python3.10/site-packages/ase (version 3.27.0)
numpy:  /home/mikei/.pyenv/versions/cemea-env/lib/python3.10/site-packages/numpy (version 2.2.6)
scipy:  /home/mikei/.pyenv/versions/cemea-env/lib/python3.10/site-packages/scipy (version 1.15.3)
libxc:  2.x.y
units:  Angstrom and eV
cores: 1
OpenMP: False
OMP_NUM_THREADS: 1

Input parameters:
  basis: dzp
  convergence: {density: 0.0001,
                eigenstates: 1e-05,
                energy: 1e-05}
  kpts: [4 4 1]
  mode: lcao

System changes: positions, numbers, cell, pbc, initial_charges, initial_magmoms 

Initialize ...

species:
  Ni:
    name: Nickel
    id: 1802175e8de9ea26d9f4394ec1a7d564
    Z: 28.0
    valence: 16
    core: 12
    charge: 0.0
    file: /home/mikei/.pyenv/versions/cemea-env/lib/python3.10/site-packages/gpaw_data/setups/Ni.LDA.gz
    compensation charges: {type: gauss,
                           rc: 0.36,
                           lmax: 2}
    cutoffs: {filter: 2.14,
              core: 1.98}
    projectors:
      #              energy  rcut
      - 4s(2.00)    -5.858   1.164
      - 3p(6.00)   -71.266   1.207
      - 4p(0.00)    -1.338   1.207
      - 3d(8.00)    -9.141   1.138
      -  s          21.353   1.164
      -  d          18.071   1.138
  
    # LCAO basis set for Ni:
    #   Name: dzp
    #   File: /home/mikei/.pyenv/versions/cemea-env/lib/python3.10/site-packages/gpaw_data/setups/Ni.dzp.basis.gz
    #   Number of radial functions: 9
    #   Number of spherical harmonics: 27
    #     l=0, rc=8.5156 Bohr: 4s-sz confined orbital
    #     l=1, rc=2.9375 Bohr: 3p-sz confined orbital
    #     l=1, rc=12.4062 Bohr: 4p-sz confined orbital
    #     l=2, rc=4.6875 Bohr: 3d-sz confined orbital
    #     l=0, rc=4.9688 Bohr: 4s-dz split-valence wave
    #     l=1, rc=2.0781 Bohr: 3p-dz split-valence wave
    #     l=1, rc=7.5469 Bohr: 4p-dz split-valence wave
    #     l=2, rc=2.9375 Bohr: 3d-dz split-valence wave
    #     l=1, rc=8.5156 Bohr: p-type Gaussian polarization
    #   Number of RI-basis functions 0

  Mo:
    name: Molybdenum
    id: ac24daaf086600a00ce6d19a74574df1
    Z: 42.0
    valence: 14
    core: 28
    charge: 0.0
    file: /home/mikei/.pyenv/versions/cemea-env/lib/python3.10/site-packages/gpaw_data/setups/Mo.LDA.gz
    compensation charges: {type: gauss,
                           rc: 0.38,
                           lmax: 2}
    cutoffs: {filter: 2.16,
              core: 1.42}
    projectors:
      #              energy  rcut
      - 4s(2.00)   -64.384   1.238
      - 5s(1.00)    -4.319   1.238
      - 4p(6.00)   -38.595   1.296
      - 5p(0.00)    -1.161   1.296
      - 4d(5.00)    -3.933   1.296
      -  d          23.278   1.296
  
    # LCAO basis set for Mo:
    #   Name: dzp
    #   File: /home/mikei/.pyenv/versions/cemea-env/lib/python3.10/site-packages/gpaw_data/setups/Mo.dzp.basis.gz
    #   Number of radial functions: 11
    #   Number of spherical harmonics: 29
    #     l=0, rc=3.5469 Bohr: 4s-sz confined orbital
    #     l=0, rc=10.0469 Bohr: 5s-sz confined orbital
    #     l=1, rc=4.0781 Bohr: 4p-sz confined orbital
    #     l=1, rc=14.0938 Bohr: 5p-sz confined orbital
    #     l=2, rc=7.2031 Bohr: 4d-sz confined orbital
    #     l=0, rc=2.1250 Bohr: 4s-dz split-valence wave
    #     l=0, rc=6.1250 Bohr: 5s-dz split-valence wave
    #     l=1, rc=2.5469 Bohr: 4p-dz split-valence wave
    #     l=1, rc=8.7656 Bohr: 5p-dz split-valence wave
    #     l=2, rc=4.2344 Bohr: 4d-dz split-valence wave
    #     l=1, rc=10.0469 Bohr: p-type Gaussian polarization
    #   Number of RI-basis functions 0

  C:
    name: Carbon
    id: d60576a1f549371a163e72552ca58787
    Z: 6.0
    valence: 4
    core: 2
    charge: 0.0
    file: /home/mikei/.pyenv/versions/cemea-env/lib/python3.10/site-packages/gpaw_data/setups/C.LDA.gz
    compensation charges: {type: gauss,
                           rc: 0.20,
                           lmax: 2}
    cutoffs: {filter: 1.14,
              core: 1.14}
    projectors:
      #              energy  rcut
      - 2s(2.00)   -13.639   0.635
      - 2p(2.00)    -5.414   0.635
      -  s          13.573   0.635
      -  p          21.797   0.635
      -  d           0.000   0.635
  
    # LCAO basis set for C:
    #   Name: dzp
    #   File: /home/mikei/.pyenv/versions/cemea-env/lib/python3.10/site-packages/gpaw_data/setups/C.dzp.basis.gz
    #   Number of radial functions: 5
    #   Number of spherical harmonics: 13
    #     l=0, rc=5.5469 Bohr: 2s-sz confined orbital
    #     l=1, rc=6.6719 Bohr: 2p-sz confined orbital
    #     l=0, rc=3.0312 Bohr: 2s-dz split-valence wave
    #     l=1, rc=3.7500 Bohr: 2p-dz split-valence wave
    #     l=2, rc=6.6719 Bohr: d-type Gaussian polarization
    #   Number of RI-basis functions 0

  Pt:
    name: Platinum
    id: 5a6399afde4becbffda6f57f3efd9534
    Z: 78.0
    valence: 16
    core: 62
    charge: 0.0
    file: /home/mikei/.pyenv/versions/cemea-env/lib/python3.10/site-packages/gpaw_data/setups/Pt.LDA.gz
    compensation charges: {type: gauss,
                           rc: 0.41,
                           lmax: 2}
    cutoffs: {filter: 2.26,
              core: 2.26}
    projectors:
      #              energy  rcut
      - 6s(1.00)    -5.930   1.307
      - 5p(6.00)   -56.318   1.371
      - 6p(0.00)    -0.962   1.371
      - 5d(9.00)    -6.387   1.307
      -  s          21.281   1.307
      -  d          20.825   1.307
  
    # LCAO basis set for Pt:
    #   Name: dzp
    #   File: /home/mikei/.pyenv/versions/cemea-env/lib/python3.10/site-packages/gpaw_data/setups/Pt.dzp.basis.gz
    #   Number of radial functions: 9
    #   Number of spherical harmonics: 27
    #     l=0, rc=8.5938 Bohr: 6s-sz confined orbital
    #     l=1, rc=3.5781 Bohr: 5p-sz confined orbital
    #     l=1, rc=13.6250 Bohr: 6p-sz confined orbital
    #     l=2, rc=6.0938 Bohr: 5d-sz confined orbital
    #     l=0, rc=5.0625 Bohr: 6s-dz split-valence wave
    #     l=1, rc=2.4219 Bohr: 5p-dz split-valence wave
    #     l=1, rc=8.3281 Bohr: 6p-dz split-valence wave
    #     l=2, rc=3.6406 Bohr: 5d-dz split-valence wave
    #     l=1, rc=8.5938 Bohr: p-type Gaussian polarization
    #   Number of RI-basis functions 0

Reference energy: -4371442.161243  # eV

Spin-paired calculation

Convergence criteria:
 Maximum [total energy] change in last 3 cyles: 1e-05 eV / valence electron
 Maximum integral of absolute [dens]ity change: 0.0001 electrons / valence electron
 Maximum integral of absolute [eigenst]ate change: 1e-05 eV^2 / valence electron
 Maximum number of scf [iter]ations: 333
 (Square brackets indicate name in SCF output, whereas a 'c' in
 the SCF output indicates the quantity has converged.)

Symmetries present (total): 2

  ( 1  0  0)  ( 0  1  0)
  ( 0  1  0)  ( 1  0  0)
  ( 0  0  1)  ( 0  0  1)

16 k-points: 4 x 4 x 1 Monkhorst-Pack grid
6 k-points in the irreducible part of the Brillouin zone
       k-points in crystal coordinates                weights
   0:     0.12500000   -0.12500000    0.00000000          2/16
   1:     0.12500000    0.12500000    0.00000000          2/16
   2:     0.37500000   -0.37500000    0.00000000          2/16
   3:     0.37500000   -0.12500000    0.00000000          4/16
   4:     0.37500000    0.12500000    0.00000000          4/16
   5:     0.37500000    0.37500000    0.00000000          2/16

Wave functions: LCAO
  Diagonalizer: Serial LAPACK
  Atomic Correction: dense with blas
  Data-type: complex
 

Occupation numbers: Fermi-Dirac:
  width: 0.1000  # eV
 

Eigensolver
   LCAO using direct dense diagonalizer 

Densities:
  Coarse grid: 36*36*128 grid
  Fine grid: 72*72*256 grid
  Total Charge: 0.000000 

Density mixing:
  Method: separate
  Backend: pulay
  Linear mixing parameter: 0.05
  old densities: 5
  Damping of long wavelength oscillations: 50 

Hamiltonian:
  XC and Coulomb potentials evaluated on a 72*72*256 grid
  Using the LDA Exchange-Correlation functional
  Interpolation: tri-quintic (5. degree polynomial)
  Poisson solver: FastPoissonSolver using
    Stencil: 6*3+1=19 point O(h^6) finite-difference Laplacian
    FFT axes: [np.int64(0), np.int64(1), np.int64(2)]
    FST axes: []
 

Memory estimate:
  Process memory now: 4595.48 MiB
  Calculator: 1003.74 MiB
    Density: 244.13 MiB
      Arrays: 32.91 MiB
      Localized functions: 198.57 MiB
      Mixer: 12.66 MiB
    Hamiltonian: 35.98 MiB
      Arrays: 21.52 MiB
      XC: 0.00 MiB
      Poisson: 0.00 MiB
      vbar: 14.46 MiB
    Wavefunctions: 723.64 MiB
      C [qnM]: 58.07 MiB
      S, T [2 x qmm]: 340.67 MiB
      P [aqMi]: 7.15 MiB
      BasisFunctions: 317.75 MiB
      Eigensolver: 0.00 MiB

Total number of cores used: 1

Number of atoms: 52
Number of atomic orbitals: 1364
Number of bands in calculation: 465
Number of valence electrons: 768
Bands to converge: occupied

... initialized

Initializing position-dependent things.

Density initialized from atomic densities
      .-----------------.  
     /|                 |  
    / |                 |  
   /  |                 |  
  /   |                 |  
 *    |                 |  
 |    |                 |  
 |    |                 |  
 |    |                 |  
 |    |                 |  
 |    |  Pt    Pt       |  
 |    |Pt Mo Pt     Mo  |  
 |    |                 |  
 |    |Mo C      Mo C   |  
 |  Mo|       Mo        |  
 |    |                 |  
 |    |C         C      |  
 Mo Ni|   NMo   Ni      |  
 | Ni | NNi   NNi   Ni  |  
 |    |                 |  
 Ni   NNi   NNi   Ni    |  
 |  NNi   NNi   NNi     |  
 | Ni | NNi   NNi   Ni  |  
 |    |                 |  
 Ni   NNi   NNi   Ni    |  
 |   Ni    Ni    Ni     |  
 |    |                 |  
 |    |                 |  
 |    |                 |  
 |    |                 |  
 |    |                 |  
 |    .-----------------.  
 |   /                 /   
 |  /                 /    
 | /                 /     
 |/                 /      
 *-----------------*       

Atomic positions and initial magnetic moments

Positions:
   0 Ni     1.244508    1.244508    8.000000    ( 0.0000,  0.0000,  0.0000)
   1 Ni     3.733524    1.244508    8.000000    ( 0.0000,  0.0000,  0.0000)
   2 Ni     6.222540    1.244508    8.000000    ( 0.0000,  0.0000,  0.0000)
   3 Ni     1.244508    3.733524    8.000000    ( 0.0000,  0.0000,  0.0000)
   4 Ni     3.733524    3.733524    8.000000    ( 0.0000,  0.0000,  0.0000)
   5 Ni     6.222540    3.733524    8.000000    ( 0.0000,  0.0000,  0.0000)
   6 Ni     1.244508    6.222540    8.000000    ( 0.0000,  0.0000,  0.0000)
   7 Ni     3.733524    6.222540    8.000000    ( 0.0000,  0.0000,  0.0000)
   8 Ni     6.222540    6.222540    8.000000    ( 0.0000,  0.0000,  0.0000)
   9 Ni     0.000000    0.000000    9.760000    ( 0.0000,  0.0000,  0.0000)
  10 Ni     2.489016    0.000000    9.760000    ( 0.0000,  0.0000,  0.0000)
  11 Ni     4.978032    0.000000    9.760000    ( 0.0000,  0.0000,  0.0000)
  12 Ni     0.000000    2.489016    9.760000    ( 0.0000,  0.0000,  0.0000)
  13 Ni     2.489016    2.489016    9.760000    ( 0.0000,  0.0000,  0.0000)
  14 Ni     4.978032    2.489016    9.760000    ( 0.0000,  0.0000,  0.0000)
  15 Ni     0.000000    4.978032    9.760000    ( 0.0000,  0.0000,  0.0000)
  16 Ni     2.489016    4.978032    9.760000    ( 0.0000,  0.0000,  0.0000)
  17 Ni     4.978032    4.978032    9.760000    ( 0.0000,  0.0000,  0.0000)
  18 Ni     1.244508    1.244508   11.520000    ( 0.0000,  0.0000,  0.0000)
  19 Ni     3.733524    1.244508   11.520000    ( 0.0000,  0.0000,  0.0000)
  20 Ni     6.222540    1.244508   11.520000    ( 0.0000,  0.0000,  0.0000)
  21 Ni     1.244508    3.733524   11.520000    ( 0.0000,  0.0000,  0.0000)
  22 Ni     3.733524    3.733524   11.520000    ( 0.0000,  0.0000,  0.0000)
  23 Ni     6.222540    3.733524   11.520000    ( 0.0000,  0.0000,  0.0000)
  24 Ni     1.244508    6.222540   11.520000    ( 0.0000,  0.0000,  0.0000)
  25 Ni     3.733524    6.222540   11.520000    ( 0.0000,  0.0000,  0.0000)
  26 Ni     6.222540    6.222540   11.520000    ( 0.0000,  0.0000,  0.0000)
  27 Ni     0.000000    0.000000   13.280000    ( 0.0000,  0.0000,  0.0000)
  28 Ni     2.489016    0.000000   13.280000    ( 0.0000,  0.0000,  0.0000)
  29 Ni     4.978032    0.000000   13.280000    ( 0.0000,  0.0000,  0.0000)
  30 Ni     0.000000    2.489016   13.280000    ( 0.0000,  0.0000,  0.0000)
  31 Ni     2.489016    2.489016   13.280000    ( 0.0000,  0.0000,  0.0000)
  32 Ni     4.978032    2.489016   13.280000    ( 0.0000,  0.0000,  0.0000)
  33 Ni     0.000000    4.978032   13.280000    ( 0.0000,  0.0000,  0.0000)
  34 Ni     2.489016    4.978032   13.280000    ( 0.0000,  0.0000,  0.0000)
  35 Ni     4.978032    4.978032   13.280000    ( 0.0000,  0.0000,  0.0000)
  36 Mo     0.000000    0.000000   15.480000    ( 0.0000,  0.0000,  0.0000)
  37 Mo     2.060000    2.060000   17.540000    ( 0.0000,  0.0000,  0.0000)
  38 C      2.060000    2.060000   15.480000    ( 0.0000,  0.0000,  0.0000)
  39 Mo     0.000000    4.120000   15.480000    ( 0.0000,  0.0000,  0.0000)
  40 Mo     2.060000    6.180000   17.540000    ( 0.0000,  0.0000,  0.0000)
  41 C      2.060000    6.180000   15.480000    ( 0.0000,  0.0000,  0.0000)
  42 Mo     4.120000    0.000000   15.480000    ( 0.0000,  0.0000,  0.0000)
  43 Mo     6.180000    2.060000   17.540000    ( 0.0000,  0.0000,  0.0000)
  44 C      6.180000    2.060000   15.480000    ( 0.0000,  0.0000,  0.0000)
  45 Mo     4.120000    4.120000   15.480000    ( 0.0000,  0.0000,  0.0000)
  46 Mo     6.180000    6.180000   17.540000    ( 0.0000,  0.0000,  0.0000)
  47 C      6.180000    6.180000   15.480000    ( 0.0000,  0.0000,  0.0000)
  48 Pt     1.991786    1.991786   19.340000    ( 0.0000,  0.0000,  0.0000)
  49 Pt     1.991786    4.391786   19.340000    ( 0.0000,  0.0000,  0.0000)
  50 Pt     4.391786    1.991786   19.340000    ( 0.0000,  0.0000,  0.0000)
  51 Pt     4.391786    4.391786   19.340000    ( 0.0000,  0.0000,  0.0000)

Unit cell:
           periodic     x           y           z      points  spacing
  1. axis:    yes    7.467048    0.000000    0.000000    36     0.2074
  2. axis:    yes    0.000000    7.467048    0.000000    36     0.2074
  3. axis:    yes    0.000000    0.000000   25.540000   128     0.1995

  Lengths:   7.467048   7.467048  25.540000
  Angles:   90.000000  90.000000  90.000000

Effective grid spacing dv^(1/3) = 0.2048

     iter     time        total  log10-change:
                         energy   eigst   dens
iter:   1 15:53:13 -1308.494148        c
iter:   2 15:54:31 -6482.946013        c -0.84
iter:   3 15:55:52  -565.960468        c -0.37
iter:   4 15:57:16  -433.993326        c -1.27
iter:   5 15:58:37  -482.610610        c -1.40
iter:   6 16:00:03  -424.215871        c -1.42
iter:   7 16:01:25  -415.929121        c -1.49
iter:   8 16:02:50  -409.569319        c -1.49
iter:   9 16:04:09  -418.023337        c -1.61
iter:  10 16:05:25  -402.686308        c -1.47
iter:  11 16:06:41  -420.459970        c -1.71
iter:  12 16:07:58  -400.278411        c -1.65
iter:  13 16:09:14  -401.263159        c -1.79
iter:  14 16:10:32  -407.067600        c -1.87
iter:  15 16:11:48  -408.863687        c -1.74
iter:  16 16:13:08  -408.213982        c -1.66
iter:  17 16:14:27  -401.295510        c -1.77
iter:  18 16:15:54  -405.343275        c -1.85
iter:  19 16:17:17  -458.924143        c -1.73
iter:  20 16:18:42  -397.632707        c -1.38
iter:  21 16:20:03  -403.182188        c -1.96
iter:  22 16:21:29  -397.435360        c -1.84
iter:  23 16:22:53  -395.132025        c -1.97
iter:  24 16:24:19  -397.289913        c -2.10
iter:  25 16:25:43  -401.970230        c -2.12
iter:  26 16:27:08  -394.387204        c -1.83
iter:  27 16:28:32  -393.512644        c -2.21
iter:  28 16:29:54  -393.406320        c -2.52
iter:  29 16:31:20  -393.350276        c -2.47
iter:  30 16:32:44  -394.318124        c -2.54
iter:  31 16:34:07  -393.437847        c -2.28
iter:  32 16:35:31  -393.157224        c -2.51
iter:  33 16:36:53  -393.264492        c -2.82
iter:  34 16:38:17  -393.283661        c -2.71
iter:  35 16:39:42  -393.103267        c -2.57
iter:  36 16:41:07  -393.111843        c -2.99
iter:  37 16:42:33  -393.111664        c -2.78
iter:  38 16:43:59  -393.098475        c -3.03
iter:  39 16:45:23  -393.085037        c -3.04
iter:  40 16:46:48  -393.085720        c -3.04
iter:  41 16:48:13  -393.085758c       c -2.90
iter:  42 16:49:37  -393.151545        c -2.89
iter:  43 16:51:00  -393.072942        c -2.85
iter:  44 16:52:26  -393.076985        c -3.07
iter:  45 16:53:51  -393.079940c       c -3.14
iter:  46 16:55:13  -393.070630        c -3.02
iter:  47 16:56:38  -393.071621        c -3.15
iter:  48 16:57:59  -393.073342c       c -3.19
iter:  49 16:59:23  -393.072588c       c -3.07
iter:  50 17:00:48  -393.073834c       c -3.24
iter:  51 17:02:14  -393.088547        c -3.44
iter:  52 17:03:37  -393.078091        c -3.27
iter:  53 17:04:59  -393.070375        c -3.43
iter:  54 17:06:25  -393.075842        c -3.22
iter:  55 17:07:51  -393.077595c       c -3.53
iter:  56 17:09:14  -393.078753c       c -3.51
iter:  57 17:10:37  -393.070500        c -3.47
iter:  58 17:12:01  -393.069072        c -3.78
iter:  59 17:13:31  -393.081319        c -3.71
iter:  60 17:14:54  -393.070959        c -3.45
iter:  61 17:16:21  -393.071276        c -3.91
iter:  62 17:17:46  -393.069189c       c -3.90
iter:  63 17:19:11  -393.070460c       c -3.89
iter:  64 17:20:35  -393.073668c       c -3.99
iter:  65 17:22:00  -393.065279        c -3.74
iter:  66 17:23:23  -393.070125        c -3.64
iter:  67 17:24:48  -393.069735c       c -3.84
iter:  68 17:26:11  -393.071777c       c -4.06c

Converged after 68 iterations.

Dipole moment: (-8.056802, -8.056802, -0.033021) |e|*Ang

Energy contributions relative to reference atoms: (reference = -4371442.161243)

Kinetic:       +175.103232
Potential:     -152.960079
External:        +0.000000
XC:            -411.400549
Entropy (-ST):   -3.809346
Local:           -1.909707
SIC:             +0.000000
--------------------------
Free energy:   -394.976450
Extrapolated:  -393.071777

Showing only first 2 kpts
 Kpt  Band  Eigenvalues  Occupancy
  0   382      1.02161    1.30737
  0   383      1.03904    1.22649
  0   384      1.05002    1.17380
  0   385      1.05641    1.14267

  1   382      1.02062    1.31187
  1   383      1.02568    1.28886
  1   384      1.04673    1.18974
  1   385      1.04940    1.17680


Fermi level: 1.08514

No gap
No difference between direct/indirect transitions
Timing:                              incl.     excl.
-----------------------------------------------------------
Basic WFS set positions:             0.001     0.001   0.0% |
Basis functions set positions:       0.196     0.196   0.0% |
LCAO WFS Initialize:                 0.430     0.100   0.0% |
 Hamiltonian:                        0.329     0.000   0.0% |
  Atomic:                            0.169     0.002   0.0% |
   XC Correction:                    0.167     0.167   0.0% |
  Calculate atomic Hamiltonians:     0.028     0.028   0.0% |
  Communicate:                       0.000     0.000   0.0% |
  Hartree integrate/restrict:        0.006     0.006   0.0% |
  Initialize Hamiltonian:            0.000     0.000   0.0% |
  Poisson:                           0.078     0.006   0.0% |
   Communicate from 1D:              0.008     0.008   0.0% |
   Communicate from 2D:              0.006     0.006   0.0% |
   Communicate to 1D:                0.011     0.011   0.0% |
   Communicate to 2D:                0.011     0.011   0.0% |
   FFT 1D:                           0.008     0.008   0.0% |
   FFT 2D:                           0.029     0.029   0.0% |
  XC 3D grid:                        0.046     0.046   0.0% |
  vbar:                              0.003     0.003   0.0% |
P tci:                               4.355     4.355   0.1% |
SCF-cycle:                        5597.477     0.178   0.0% |
 Density:                         4056.898     0.001   0.0% |
  Atomic density matrices:           1.072     1.072   0.0% |
  Mix:                               8.249     8.249   0.1% |
  Multipole moments:                 0.020     0.020   0.0% |
  Normalize:                         0.007     0.007   0.0% |
  Pseudo density:                 4047.548     0.197   0.0% |
   Calculate density matrix:        10.425    10.425   0.2% |
   Construct density:             4036.663  4036.663  72.0% |----------------------------|
   Symmetrize density:               0.263     0.263   0.0% |
 Hamiltonian:                       24.029     0.003   0.0% |
  Atomic:                           11.438     0.125   0.0% |
   XC Correction:                   11.313    11.313   0.2% |
  Calculate atomic Hamiltonians:     1.896     1.896   0.0% |
  Communicate:                       0.000     0.000   0.0% |
  Hartree integrate/restrict:        0.456     0.456   0.0% |
  Poisson:                           5.125     0.410   0.0% |
   Communicate from 1D:              0.561     0.561   0.0% |
   Communicate from 2D:              0.418     0.418   0.0% |
   Communicate to 1D:                0.597     0.597   0.0% |
   Communicate to 2D:                0.679     0.679   0.0% |
   FFT 1D:                           0.545     0.545   0.0% |
   FFT 2D:                           1.915     1.915   0.0% |
  XC 3D grid:                        4.311     4.311   0.1% |
  vbar:                              0.800     0.800   0.0% |
 LCAO eigensolver:                1516.372     1.764   0.0% |
  Calculate projections:            56.238    56.238   1.0% |
  DenseAtomicCorrection:           196.533   196.533   3.5% ||
  Distribute overlap matrix:         3.100     3.100   0.1% |
  Orbital Layouts:                 337.706   337.706   6.0% |-|
  Potential matrix:                847.029   847.029  15.1% |-----|
  Sum over cells:                   74.003    74.003   1.3% ||
ST tci:                              2.107     2.107   0.0% |
Set symmetry:                        0.000     0.000   0.0% |
TCI: Evaluate splines:               0.597     0.597   0.0% |
mktci:                               0.029     0.029   0.0% |
Other:                               4.023     4.023   0.1% |
-----------------------------------------------------------
Total:                                      5609.215 100.0%

Memory usage: 4.49 GiB
Date: Mon Feb 23 17:26:11 2026
