
  ___ ___ ___ _ _ _  
 |   |   |_  | | | | 
 | | | | | . | | | | 
 |__ |  _|___|_____|  25.7.0
 |___|_|             

User:   mikei@Z790-AORUS-ELITE-AX
Date:   Fri Feb 20 12:01:00 2026
Arch:   x86_64
Pid:    89048
CWD:    /home/mikei/Dokumenty/code/cemea/ocx
Python: 3.10.16
gpaw:   /home/mikei/.pyenv/versions/cemea-env/lib/python3.10/site-packages/gpaw
_gpaw:  /home/mikei/.pyenv/versions/cemea-env/lib/python3.10/site-packages/
        _gpaw.cpython-310-x86_64-linux-gnu.so
ase:    /home/mikei/.pyenv/versions/cemea-env/lib/python3.10/site-packages/ase (version 3.27.0)
numpy:  /home/mikei/.pyenv/versions/cemea-env/lib/python3.10/site-packages/numpy (version 2.2.6)
scipy:  /home/mikei/.pyenv/versions/cemea-env/lib/python3.10/site-packages/scipy (version 1.15.3)
libxc:  2.x.y
units:  Angstrom and eV
cores: 1
OpenMP: False
OMP_NUM_THREADS: 1

Input parameters:
  basis: dzp
  convergence: {density: 0.0001,
                eigenstates: 1e-05,
                energy: 1e-05}
  kpts: [4 4 1]
  mode: lcao

System changes: positions, numbers, cell, pbc, initial_charges, initial_magmoms 

Initialize ...

species:
  Mo:
    name: Molybdenum
    id: ac24daaf086600a00ce6d19a74574df1
    Z: 42.0
    valence: 14
    core: 28
    charge: 0.0
    file: /home/mikei/.pyenv/versions/cemea-env/lib/python3.10/site-packages/gpaw_data/setups/Mo.LDA.gz
    compensation charges: {type: gauss,
                           rc: 0.38,
                           lmax: 2}
    cutoffs: {filter: 2.16,
              core: 1.42}
    projectors:
      #              energy  rcut
      - 4s(2.00)   -64.384   1.238
      - 5s(1.00)    -4.319   1.238
      - 4p(6.00)   -38.595   1.296
      - 5p(0.00)    -1.161   1.296
      - 4d(5.00)    -3.933   1.296
      -  d          23.278   1.296
  
    # LCAO basis set for Mo:
    #   Name: dzp
    #   File: /home/mikei/.pyenv/versions/cemea-env/lib/python3.10/site-packages/gpaw_data/setups/Mo.dzp.basis.gz
    #   Number of radial functions: 11
    #   Number of spherical harmonics: 29
    #     l=0, rc=3.5469 Bohr: 4s-sz confined orbital
    #     l=0, rc=10.0469 Bohr: 5s-sz confined orbital
    #     l=1, rc=4.0781 Bohr: 4p-sz confined orbital
    #     l=1, rc=14.0938 Bohr: 5p-sz confined orbital
    #     l=2, rc=7.2031 Bohr: 4d-sz confined orbital
    #     l=0, rc=2.1250 Bohr: 4s-dz split-valence wave
    #     l=0, rc=6.1250 Bohr: 5s-dz split-valence wave
    #     l=1, rc=2.5469 Bohr: 4p-dz split-valence wave
    #     l=1, rc=8.7656 Bohr: 5p-dz split-valence wave
    #     l=2, rc=4.2344 Bohr: 4d-dz split-valence wave
    #     l=1, rc=10.0469 Bohr: p-type Gaussian polarization
    #   Number of RI-basis functions 0

  Ir:
    name: Iridium
    id: ca472fc5a58bba06e8299391bae24b72
    Z: 77.0
    valence: 15
    core: 62
    charge: 0.0
    file: /home/mikei/.pyenv/versions/cemea-env/lib/python3.10/site-packages/gpaw_data/setups/Ir.LDA.gz
    compensation charges: {type: gauss,
                           rc: 0.40,
                           lmax: 2}
    cutoffs: {filter: 2.40,
              core: 2.36}
    projectors:
      #              energy  rcut
      - 6s(2.00)    -6.559   1.296
      - 5p(6.00)   -54.966   1.328
      - 6p(0.00)    -1.355   1.328
      - 5d(7.00)    -7.377   1.286
      -  s          20.652   1.296
      -  d          19.835   1.286
  
    # LCAO basis set for Ir:
    #   Name: dzp
    #   File: /home/mikei/.pyenv/versions/cemea-env/lib/python3.10/site-packages/gpaw_data/setups/Ir.dzp.basis.gz
    #   Number of radial functions: 9
    #   Number of spherical harmonics: 27
    #     l=0, rc=8.4062 Bohr: 6s-sz confined orbital
    #     l=1, rc=3.6406 Bohr: 5p-sz confined orbital
    #     l=1, rc=12.7031 Bohr: 6p-sz confined orbital
    #     l=2, rc=6.0469 Bohr: 5d-sz confined orbital
    #     l=0, rc=4.9844 Bohr: 6s-dz split-valence wave
    #     l=1, rc=2.4062 Bohr: 5p-dz split-valence wave
    #     l=1, rc=7.7969 Bohr: 6p-dz split-valence wave
    #     l=2, rc=3.5938 Bohr: 5d-dz split-valence wave
    #     l=1, rc=8.4062 Bohr: p-type Gaussian polarization
    #   Number of RI-basis functions 0

  C:
    name: Carbon
    id: d60576a1f549371a163e72552ca58787
    Z: 6.0
    valence: 4
    core: 2
    charge: 0.0
    file: /home/mikei/.pyenv/versions/cemea-env/lib/python3.10/site-packages/gpaw_data/setups/C.LDA.gz
    compensation charges: {type: gauss,
                           rc: 0.20,
                           lmax: 2}
    cutoffs: {filter: 1.14,
              core: 1.14}
    projectors:
      #              energy  rcut
      - 2s(2.00)   -13.639   0.635
      - 2p(2.00)    -5.414   0.635
      -  s          13.573   0.635
      -  p          21.797   0.635
      -  d           0.000   0.635
  
    # LCAO basis set for C:
    #   Name: dzp
    #   File: /home/mikei/.pyenv/versions/cemea-env/lib/python3.10/site-packages/gpaw_data/setups/C.dzp.basis.gz
    #   Number of radial functions: 5
    #   Number of spherical harmonics: 13
    #     l=0, rc=5.5469 Bohr: 2s-sz confined orbital
    #     l=1, rc=6.6719 Bohr: 2p-sz confined orbital
    #     l=0, rc=3.0312 Bohr: 2s-dz split-valence wave
    #     l=1, rc=3.7500 Bohr: 2p-dz split-valence wave
    #     l=2, rc=6.6719 Bohr: d-type Gaussian polarization
    #   Number of RI-basis functions 0

Reference energy: -1258426.139376  # eV

Spin-paired calculation

Convergence criteria:
 Maximum [total energy] change in last 3 cyles: 1e-05 eV / valence electron
 Maximum integral of absolute [dens]ity change: 0.0001 electrons / valence electron
 Maximum integral of absolute [eigenst]ate change: 1e-05 eV^2 / valence electron
 Maximum number of scf [iter]ations: 333
 (Square brackets indicate name in SCF output, whereas a 'c' in
 the SCF output indicates the quantity has converged.)

Symmetries present (total): 2

  ( 1  0  0)  ( 0  1  0)
  ( 0  1  0)  ( 1  0  0)
  ( 0  0  1)  ( 0  0  1)

16 k-points: 4 x 4 x 1 Monkhorst-Pack grid
6 k-points in the irreducible part of the Brillouin zone
       k-points in crystal coordinates                weights
   0:     0.12500000   -0.12500000    0.00000000          2/16
   1:     0.12500000    0.12500000    0.00000000          2/16
   2:     0.37500000   -0.37500000    0.00000000          2/16
   3:     0.37500000   -0.12500000    0.00000000          4/16
   4:     0.37500000    0.12500000    0.00000000          4/16
   5:     0.37500000    0.37500000    0.00000000          2/16

Wave functions: LCAO
  Diagonalizer: Serial LAPACK
  Atomic Correction: dense with blas
  Data-type: complex
 

Occupation numbers: Fermi-Dirac:
  width: 0.1000  # eV
 

Eigensolver
   LCAO using direct dense diagonalizer 

Densities:
  Coarse grid: 40*40*92 grid
  Fine grid: 80*80*184 grid
  Total Charge: 0.000000 

Density mixing:
  Method: separate
  Backend: pulay
  Linear mixing parameter: 0.05
  old densities: 5
  Damping of long wavelength oscillations: 50 

Hamiltonian:
  XC and Coulomb potentials evaluated on a 80*80*184 grid
  Using the LDA Exchange-Correlation functional
  Interpolation: tri-quintic (5. degree polynomial)
  Poisson solver: FastPoissonSolver using
    Stencil: 6*3+1=19 point O(h^6) finite-difference Laplacian
    FFT axes: [np.int64(0), np.int64(1), np.int64(2)]
    FST axes: []
 

Memory estimate:
  Process memory now: 2222.55 MiB
  Calculator: 202.07 MiB
    Density: 81.73 MiB
      Arrays: 29.20 MiB
      Localized functions: 41.30 MiB
      Mixer: 11.23 MiB
    Hamiltonian: 21.85 MiB
      Arrays: 19.09 MiB
      XC: 0.00 MiB
      Poisson: 0.00 MiB
      vbar: 2.76 MiB
    Wavefunctions: 98.49 MiB
      C [qnM]: 2.12 MiB
      S, T [2 x qmm]: 14.56 MiB
      P [aqMi]: 0.32 MiB
      BasisFunctions: 81.49 MiB
      Eigensolver: 0.00 MiB

Total number of cores used: 1

Number of atoms: 12
Number of atomic orbitals: 282
Number of bands in calculation: 82
Number of valence electrons: 129
Bands to converge: occupied

... initialized

Initializing position-dependent things.

Density initialized from atomic densities
      .-------------------.  
     /|                   |  
    / |                   |  
   /  |                   |  
  /   |                   |  
 *    |                   |  
 |    |                   |  
 |    |                   |  
 |    |                   |  
 |    |                   |  
 |    |                   |  
 |    |   Mo        Mo    |  
 |    |                   |  
 |    |Ir        Mo       |  
 |    |   C         C     |  
 |  Mo|       Mo          |  
 |    |C         C        |  
 Mo   |    Mo             |  
 |    |                   |  
 |    |                   |  
 |    |                   |  
 |    |                   |  
 |    .-------------------.  
 |   /                   /   
 |  /                   /    
 | /                   /     
 |/                   /      
 *-------------------*       

Atomic positions and initial magnetic moments

Positions:
   0 Mo     0.000000    0.000000    8.000000    ( 0.0000,  0.0000,  0.0000)
   1 Ir     2.060000    2.060000   10.060000    ( 0.0000,  0.0000,  0.0000)
   2 C      2.060000    2.060000    8.000000    ( 0.0000,  0.0000,  0.0000)
   3 Mo     0.000000    4.120000    8.000000    ( 0.0000,  0.0000,  0.0000)
   4 Mo     2.060000    6.180000   10.060000    ( 0.0000,  0.0000,  0.0000)
   5 C      2.060000    6.180000    8.000000    ( 0.0000,  0.0000,  0.0000)
   6 Mo     4.120000    0.000000    8.000000    ( 0.0000,  0.0000,  0.0000)
   7 Mo     6.180000    2.060000   10.060000    ( 0.0000,  0.0000,  0.0000)
   8 C      6.180000    2.060000    8.000000    ( 0.0000,  0.0000,  0.0000)
   9 Mo     4.120000    4.120000    8.000000    ( 0.0000,  0.0000,  0.0000)
  10 Mo     6.180000    6.180000   10.060000    ( 0.0000,  0.0000,  0.0000)
  11 C      6.180000    6.180000    8.000000    ( 0.0000,  0.0000,  0.0000)

Unit cell:
           periodic     x           y           z      points  spacing
  1. axis:    yes    8.240000    0.000000    0.000000    40     0.2060
  2. axis:    yes    0.000000    8.240000    0.000000    40     0.2060
  3. axis:    yes    0.000000    0.000000   18.060000    92     0.1963

  Lengths:   8.240000   8.240000  18.060000
  Angles:   90.000000  90.000000  90.000000

Effective grid spacing dv^(1/3) = 0.2027

     iter     time        total  log10-change:
                         energy   eigst   dens
iter:   1 12:01:05   -96.903394        c
iter:   2 12:01:12   -87.133946        c -0.85
iter:   3 12:01:26   -82.395220        c -0.98
iter:   4 12:01:35   -80.248461        c -1.08
iter:   5 12:01:43   -79.951073        c -1.19
iter:   6 12:01:51   -78.849985        c -1.23
iter:   7 12:01:58   -80.830179        c -1.32
iter:   8 12:02:06   -78.166895        c -1.30
iter:   9 12:02:14   -77.671368        c -1.62
iter:  10 12:02:22   -77.424016        c -1.74
iter:  11 12:02:29   -77.345223        c -1.92
iter:  12 12:02:36   -77.326117        c -2.02
iter:  13 12:02:44   -77.309080        c -2.12
iter:  14 12:02:56   -77.286073        c -2.17
iter:  15 12:03:02   -77.282007        c -2.40
iter:  16 12:03:09   -77.282368        c -2.48
iter:  17 12:03:19   -77.278978        c -2.57
iter:  18 12:03:27   -77.278792        c -2.63
iter:  19 12:03:38   -77.277694c       c -2.87
iter:  20 12:03:50   -77.277039        c -2.99
iter:  21 12:04:03   -77.276799c       c -3.10
iter:  22 12:04:11   -77.276635c       c -3.15
iter:  23 12:04:18   -77.277021c       c -3.24
iter:  24 12:04:25   -77.276703c       c -3.24
iter:  25 12:04:32   -77.276784c       c -3.37
iter:  26 12:04:42   -77.276800c       c -3.41
iter:  27 12:04:50   -77.276595c       c -3.54
iter:  28 12:04:58   -77.276547c       c -3.67
iter:  29 12:05:09   -77.276544c       c -3.83
iter:  30 12:05:17   -77.276515c       c -4.12c

Converged after 30 iterations.

Dipole moment: (-5.107709, -5.107709, 0.432860) |e|*Ang

Energy contributions relative to reference atoms: (reference = -1258426.139376)

Kinetic:       -200.496465
Potential:     +138.916408
External:        +0.000000
XC:             -16.160100
Entropy (-ST):   -1.111739
Local:           +1.019510
SIC:             +0.000000
--------------------------
Free energy:    -77.832385
Extrapolated:   -77.276515

Showing only first 2 kpts
 Kpt  Band  Eigenvalues  Occupancy
  0    62     -2.21115    1.17323
  0    63     -2.18814    1.05986
  0    64     -2.07579    0.53647
  0    65     -2.03879    0.40407

  1    62     -2.21115    1.17323
  1    63     -2.18814    1.05986
  1    64     -2.07579    0.53647
  1    65     -2.03879    0.40407


Fermi level: -2.17615

No gap
No difference between direct/indirect transitions
Timing:                              incl.     excl.
-----------------------------------------------------------
Basic WFS set positions:             0.000     0.000   0.0% |
Basis functions set positions:       0.063     0.063   0.0% |
LCAO WFS Initialize:                 0.202     0.028   0.0% |
 Hamiltonian:                        0.174     0.000   0.0% |
  Atomic:                            0.055     0.001   0.0% |
   XC Correction:                    0.054     0.054   0.0% |
  Calculate atomic Hamiltonians:     0.006     0.006   0.0% |
  Communicate:                       0.000     0.000   0.0% |
  Hartree integrate/restrict:        0.005     0.005   0.0% |
  Initialize Hamiltonian:            0.001     0.001   0.0% |
  Poisson:                           0.067     0.005   0.0% |
   Communicate from 1D:              0.006     0.006   0.0% |
   Communicate from 2D:              0.007     0.007   0.0% |
   Communicate to 1D:                0.007     0.007   0.0% |
   Communicate to 2D:                0.009     0.009   0.0% |
   FFT 1D:                           0.015     0.015   0.0% |
   FFT 2D:                           0.019     0.019   0.0% |
  XC 3D grid:                        0.040     0.040   0.0% |
  vbar:                              0.001     0.001   0.0% |
P tci:                               0.186     0.186   0.1% |
SCF-cycle:                         255.696     0.030   0.0% |
 Density:                          131.183     0.000   0.0% |
  Atomic density matrices:           0.032     0.032   0.0% |
  Mix:                               2.820     2.820   1.1% |
  Multipole moments:                 0.003     0.003   0.0% |
  Normalize:                         0.002     0.002   0.0% |
  Pseudo density:                  128.326     0.008   0.0% |
   Calculate density matrix:         0.556     0.556   0.2% |
   Construct density:              127.664   127.664  49.7% |-------------------|
   Symmetrize density:               0.098     0.098   0.0% |
 Hamiltonian:                        6.492     0.001   0.0% |
  Atomic:                            1.686     0.022   0.0% |
   XC Correction:                    1.665     1.665   0.6% |
  Calculate atomic Hamiltonians:     0.167     0.167   0.1% |
  Communicate:                       0.000     0.000   0.0% |
  Hartree integrate/restrict:        0.159     0.159   0.1% |
  Poisson:                           1.840     0.141   0.1% |
   Communicate from 1D:              0.205     0.205   0.1% |
   Communicate from 2D:              0.196     0.196   0.1% |
   Communicate to 1D:                0.182     0.182   0.1% |
   Communicate to 2D:                0.209     0.209   0.1% |
   FFT 1D:                           0.337     0.337   0.1% |
   FFT 2D:                           0.571     0.571   0.2% |
  XC 3D grid:                        2.370     2.370   0.9% |
  vbar:                              0.268     0.268   0.1% |
 LCAO eigensolver:                 117.992     0.030   0.0% |
  Calculate projections:             9.415     9.415   3.7% ||
  DenseAtomicCorrection:             8.815     8.815   3.4% ||
  Distribute overlap matrix:         0.026     0.026   0.0% |
  Orbital Layouts:                  76.371    76.371  29.7% |-----------|
  Potential matrix:                 21.911    21.911   8.5% |--|
  Sum over cells:                    1.423     1.423   0.6% |
ST tci:                              0.119     0.119   0.0% |
Set symmetry:                        0.000     0.000   0.0% |
TCI: Evaluate splines:               0.313     0.313   0.1% |
mktci:                               0.004     0.004   0.0% |
Other:                               0.541     0.541   0.2% |
-----------------------------------------------------------
Total:                                       257.125 100.0%

Memory usage: 2.17 GiB
Date: Fri Feb 20 12:05:17 2026
