
  ___ ___ ___ _ _ _  
 |   |   |_  | | | | 
 | | | | | . | | | | 
 |__ |  _|___|_____|  25.7.0
 |___|_|             

User:   mikei@Z790-AORUS-ELITE-AX
Date:   Fri Feb 20 12:05:17 2026
Arch:   x86_64
Pid:    89048
CWD:    /home/mikei/Dokumenty/code/cemea/ocx
Python: 3.10.16
gpaw:   /home/mikei/.pyenv/versions/cemea-env/lib/python3.10/site-packages/gpaw
_gpaw:  /home/mikei/.pyenv/versions/cemea-env/lib/python3.10/site-packages/
        _gpaw.cpython-310-x86_64-linux-gnu.so
ase:    /home/mikei/.pyenv/versions/cemea-env/lib/python3.10/site-packages/ase (version 3.27.0)
numpy:  /home/mikei/.pyenv/versions/cemea-env/lib/python3.10/site-packages/numpy (version 2.2.6)
scipy:  /home/mikei/.pyenv/versions/cemea-env/lib/python3.10/site-packages/scipy (version 1.15.3)
libxc:  2.x.y
units:  Angstrom and eV
cores: 1
OpenMP: False
OMP_NUM_THREADS: 1

Input parameters:
  basis: dzp
  convergence: {density: 0.0001,
                eigenstates: 1e-05,
                energy: 1e-05}
  kpts: [4 4 1]
  mode: lcao

System changes: positions, numbers, cell, pbc, initial_charges, initial_magmoms 

Initialize ...

species:
  Mo:
    name: Molybdenum
    id: ac24daaf086600a00ce6d19a74574df1
    Z: 42.0
    valence: 14
    core: 28
    charge: 0.0
    file: /home/mikei/.pyenv/versions/cemea-env/lib/python3.10/site-packages/gpaw_data/setups/Mo.LDA.gz
    compensation charges: {type: gauss,
                           rc: 0.38,
                           lmax: 2}
    cutoffs: {filter: 2.16,
              core: 1.42}
    projectors:
      #              energy  rcut
      - 4s(2.00)   -64.384   1.238
      - 5s(1.00)    -4.319   1.238
      - 4p(6.00)   -38.595   1.296
      - 5p(0.00)    -1.161   1.296
      - 4d(5.00)    -3.933   1.296
      -  d          23.278   1.296
  
    # LCAO basis set for Mo:
    #   Name: dzp
    #   File: /home/mikei/.pyenv/versions/cemea-env/lib/python3.10/site-packages/gpaw_data/setups/Mo.dzp.basis.gz
    #   Number of radial functions: 11
    #   Number of spherical harmonics: 29
    #     l=0, rc=3.5469 Bohr: 4s-sz confined orbital
    #     l=0, rc=10.0469 Bohr: 5s-sz confined orbital
    #     l=1, rc=4.0781 Bohr: 4p-sz confined orbital
    #     l=1, rc=14.0938 Bohr: 5p-sz confined orbital
    #     l=2, rc=7.2031 Bohr: 4d-sz confined orbital
    #     l=0, rc=2.1250 Bohr: 4s-dz split-valence wave
    #     l=0, rc=6.1250 Bohr: 5s-dz split-valence wave
    #     l=1, rc=2.5469 Bohr: 4p-dz split-valence wave
    #     l=1, rc=8.7656 Bohr: 5p-dz split-valence wave
    #     l=2, rc=4.2344 Bohr: 4d-dz split-valence wave
    #     l=1, rc=10.0469 Bohr: p-type Gaussian polarization
    #   Number of RI-basis functions 0

  Ir:
    name: Iridium
    id: ca472fc5a58bba06e8299391bae24b72
    Z: 77.0
    valence: 15
    core: 62
    charge: 0.0
    file: /home/mikei/.pyenv/versions/cemea-env/lib/python3.10/site-packages/gpaw_data/setups/Ir.LDA.gz
    compensation charges: {type: gauss,
                           rc: 0.40,
                           lmax: 2}
    cutoffs: {filter: 2.40,
              core: 2.36}
    projectors:
      #              energy  rcut
      - 6s(2.00)    -6.559   1.296
      - 5p(6.00)   -54.966   1.328
      - 6p(0.00)    -1.355   1.328
      - 5d(7.00)    -7.377   1.286
      -  s          20.652   1.296
      -  d          19.835   1.286
  
    # LCAO basis set for Ir:
    #   Name: dzp
    #   File: /home/mikei/.pyenv/versions/cemea-env/lib/python3.10/site-packages/gpaw_data/setups/Ir.dzp.basis.gz
    #   Number of radial functions: 9
    #   Number of spherical harmonics: 27
    #     l=0, rc=8.4062 Bohr: 6s-sz confined orbital
    #     l=1, rc=3.6406 Bohr: 5p-sz confined orbital
    #     l=1, rc=12.7031 Bohr: 6p-sz confined orbital
    #     l=2, rc=6.0469 Bohr: 5d-sz confined orbital
    #     l=0, rc=4.9844 Bohr: 6s-dz split-valence wave
    #     l=1, rc=2.4062 Bohr: 5p-dz split-valence wave
    #     l=1, rc=7.7969 Bohr: 6p-dz split-valence wave
    #     l=2, rc=3.5938 Bohr: 5d-dz split-valence wave
    #     l=1, rc=8.4062 Bohr: p-type Gaussian polarization
    #   Number of RI-basis functions 0

  C:
    name: Carbon
    id: d60576a1f549371a163e72552ca58787
    Z: 6.0
    valence: 4
    core: 2
    charge: 0.0
    file: /home/mikei/.pyenv/versions/cemea-env/lib/python3.10/site-packages/gpaw_data/setups/C.LDA.gz
    compensation charges: {type: gauss,
                           rc: 0.20,
                           lmax: 2}
    cutoffs: {filter: 1.14,
              core: 1.14}
    projectors:
      #              energy  rcut
      - 2s(2.00)   -13.639   0.635
      - 2p(2.00)    -5.414   0.635
      -  s          13.573   0.635
      -  p          21.797   0.635
      -  d           0.000   0.635
  
    # LCAO basis set for C:
    #   Name: dzp
    #   File: /home/mikei/.pyenv/versions/cemea-env/lib/python3.10/site-packages/gpaw_data/setups/C.dzp.basis.gz
    #   Number of radial functions: 5
    #   Number of spherical harmonics: 13
    #     l=0, rc=5.5469 Bohr: 2s-sz confined orbital
    #     l=1, rc=6.6719 Bohr: 2p-sz confined orbital
    #     l=0, rc=3.0312 Bohr: 2s-dz split-valence wave
    #     l=1, rc=3.7500 Bohr: 2p-dz split-valence wave
    #     l=2, rc=6.6719 Bohr: d-type Gaussian polarization
    #   Number of RI-basis functions 0

  H:
    name: Hydrogen
    id: 4766778ce56282eaa64abeb28b7c1de3
    Z: 1.0
    valence: 1
    core: 0
    charge: 0.0
    file: /home/mikei/.pyenv/versions/cemea-env/lib/python3.10/site-packages/gpaw_data/setups/H.LDA.gz
    compensation charges: {type: gauss,
                           rc: 0.15,
                           lmax: 2}
    cutoffs: {filter: 0.85,
              core: 0.53}
    projectors:
      #              energy  rcut
      - 1s(1.00)    -6.353   0.476
      -  s          20.858   0.476
      -  p           0.000   0.476
  
    # LCAO basis set for H:
    #   Name: dzp
    #   File: /home/mikei/.pyenv/versions/cemea-env/lib/python3.10/site-packages/gpaw_data/setups/H.dzp.basis.gz
    #   Number of radial functions: 3
    #   Number of spherical harmonics: 5
    #     l=0, rc=6.4219 Bohr: 1s-sz confined orbital
    #     l=0, rc=3.6094 Bohr: 1s-dz split-valence wave
    #     l=1, rc=6.4219 Bohr: p-type Gaussian polarization
    #   Number of RI-basis functions 0

Reference energy: -1258438.268334  # eV

Spin-paired calculation

Convergence criteria:
 Maximum [total energy] change in last 3 cyles: 1e-05 eV / valence electron
 Maximum integral of absolute [dens]ity change: 0.0001 electrons / valence electron
 Maximum integral of absolute [eigenst]ate change: 1e-05 eV^2 / valence electron
 Maximum number of scf [iter]ations: 333
 (Square brackets indicate name in SCF output, whereas a 'c' in
 the SCF output indicates the quantity has converged.)

Symmetries present (total): 2

  ( 1  0  0)  ( 0  1  0)
  ( 0  1  0)  ( 1  0  0)
  ( 0  0  1)  ( 0  0  1)

16 k-points: 4 x 4 x 1 Monkhorst-Pack grid
6 k-points in the irreducible part of the Brillouin zone
       k-points in crystal coordinates                weights
   0:     0.12500000   -0.12500000    0.00000000          2/16
   1:     0.12500000    0.12500000    0.00000000          2/16
   2:     0.37500000   -0.37500000    0.00000000          2/16
   3:     0.37500000   -0.12500000    0.00000000          4/16
   4:     0.37500000    0.12500000    0.00000000          4/16
   5:     0.37500000    0.37500000    0.00000000          2/16

Wave functions: LCAO
  Diagonalizer: Serial LAPACK
  Atomic Correction: dense with blas
  Data-type: complex
 

Occupation numbers: Fermi-Dirac:
  width: 0.1000  # eV
 

Eigensolver
   LCAO using direct dense diagonalizer 

Densities:
  Coarse grid: 40*40*92 grid
  Fine grid: 80*80*184 grid
  Total Charge: 0.000000 

Density mixing:
  Method: separate
  Backend: pulay
  Linear mixing parameter: 0.05
  old densities: 5
  Damping of long wavelength oscillations: 50 

Hamiltonian:
  XC and Coulomb potentials evaluated on a 80*80*184 grid
  Using the LDA Exchange-Correlation functional
  Interpolation: tri-quintic (5. degree polynomial)
  Poisson solver: FastPoissonSolver using
    Stencil: 6*3+1=19 point O(h^6) finite-difference Laplacian
    FFT axes: [np.int64(0), np.int64(1), np.int64(2)]
    FST axes: []
 

Memory estimate:
  Process memory now: 2222.55 MiB
  Calculator: 203.53 MiB
    Density: 81.97 MiB
      Arrays: 29.20 MiB
      Localized functions: 41.54 MiB
      Mixer: 11.23 MiB
    Hamiltonian: 21.87 MiB
      Arrays: 19.09 MiB
      XC: 0.00 MiB
      Poisson: 0.00 MiB
      vbar: 2.78 MiB
    Wavefunctions: 99.69 MiB
      C [qnM]: 2.15 MiB
      S, T [2 x qmm]: 15.08 MiB
      P [aqMi]: 0.33 MiB
      BasisFunctions: 82.12 MiB
      Eigensolver: 0.00 MiB

Total number of cores used: 1

Number of atoms: 13
Number of atomic orbitals: 287
Number of bands in calculation: 82
Number of valence electrons: 130
Bands to converge: occupied

... initialized

Initializing position-dependent things.

Density initialized from atomic densities
      .-------------------.  
     /|                   |  
    / |                   |  
   /  |                   |  
  /   |                   |  
 *    |                   |  
 |    |                   |  
 |    |                   |  
 |    |                   |  
 |    |                   |  
 |    |                   |  
 |    |   MH        Mo    |  
 |    |                   |  
 |    |Ir        Mo       |  
 |    |   C         C     |  
 |  Mo|       Mo          |  
 |    |C         C        |  
 Mo   |    Mo             |  
 |    |                   |  
 |    |                   |  
 |    |                   |  
 |    |                   |  
 |    .-------------------.  
 |   /                   /   
 |  /                   /    
 | /                   /     
 |/                   /      
 *-------------------*       

Atomic positions and initial magnetic moments

Positions:
   0 Mo     0.000000    0.000000    8.000000    ( 0.0000,  0.0000,  0.0000)
   1 Ir     2.060000    2.060000   10.060000    ( 0.0000,  0.0000,  0.0000)
   2 C      2.060000    2.060000    8.000000    ( 0.0000,  0.0000,  0.0000)
   3 Mo     0.000000    4.120000    8.000000    ( 0.0000,  0.0000,  0.0000)
   4 Mo     2.060000    6.180000   10.060000    ( 0.0000,  0.0000,  0.0000)
   5 C      2.060000    6.180000    8.000000    ( 0.0000,  0.0000,  0.0000)
   6 Mo     4.120000    0.000000    8.000000    ( 0.0000,  0.0000,  0.0000)
   7 Mo     6.180000    2.060000   10.060000    ( 0.0000,  0.0000,  0.0000)
   8 C      6.180000    2.060000    8.000000    ( 0.0000,  0.0000,  0.0000)
   9 Mo     4.120000    4.120000    8.000000    ( 0.0000,  0.0000,  0.0000)
  10 Mo     6.180000    6.180000   10.060000    ( 0.0000,  0.0000,  0.0000)
  11 C      6.180000    6.180000    8.000000    ( 0.0000,  0.0000,  0.0000)
  12 H      3.433333    3.433333   11.560000    ( 0.0000,  0.0000,  0.0000)

Unit cell:
           periodic     x           y           z      points  spacing
  1. axis:    yes    8.240000    0.000000    0.000000    40     0.2060
  2. axis:    yes    0.000000    8.240000    0.000000    40     0.2060
  3. axis:    yes    0.000000    0.000000   18.060000    92     0.1963

  Lengths:   8.240000   8.240000  18.060000
  Angles:   90.000000  90.000000  90.000000

Effective grid spacing dv^(1/3) = 0.2027

     iter     time        total  log10-change:
                         energy   eigst   dens
iter:   1 12:05:23  -100.112180        c
iter:   2 12:05:30   -89.957910        c -0.85
iter:   3 12:05:40   -84.861159        c -0.97
iter:   4 12:05:51   -82.770327        c -1.08
iter:   5 12:06:04   -82.410618        c -1.19
iter:   6 12:06:13   -81.281406        c -1.24
iter:   7 12:06:21   -80.656396        c -1.32
iter:   8 12:06:28   -80.199527        c -1.39
iter:   9 12:06:37   -80.045718        c -1.55
iter:  10 12:06:45   -80.002593        c -1.78
iter:  11 12:06:52   -79.958141        c -1.90
iter:  12 12:07:04   -79.934744        c -1.94
iter:  13 12:07:18   -79.871950        c -2.00
iter:  14 12:07:28   -79.860885        c -2.12
iter:  15 12:07:37   -79.857560        c -2.21
iter:  16 12:07:43   -79.858686        c -2.26
iter:  17 12:07:55   -79.856500        c -2.39
iter:  18 12:08:03   -79.855523        c -2.56
iter:  19 12:08:14   -79.854936        c -2.58
iter:  20 12:08:28   -79.853969        c -2.72
iter:  21 12:08:34   -79.853616        c -2.84
iter:  22 12:08:43   -79.853136c       c -2.95
iter:  23 12:08:57   -79.852724c       c -3.13
iter:  24 12:09:05   -79.852651c       c -3.22
iter:  25 12:09:14   -79.852404c       c -3.29
iter:  26 12:09:24   -79.852282c       c -3.29
iter:  27 12:09:31   -79.852221c       c -3.43
iter:  28 12:09:39   -79.852212c       c -3.48
iter:  29 12:09:48   -79.852167c       c -3.53
iter:  30 12:09:57   -79.852164c       c -3.60
iter:  31 12:10:07   -79.852141c       c -3.65
iter:  32 12:10:16   -79.852126c       c -3.64
iter:  33 12:10:30   -79.852104c       c -3.72
iter:  34 12:10:38   -79.852112c       c -3.74
iter:  35 12:10:45   -79.852086c       c -3.81
iter:  36 12:10:56   -79.852111c       c -3.87
iter:  37 12:11:04   -79.852096c       c -3.94
iter:  38 12:11:10   -79.852124c       c -3.90
iter:  39 12:11:20   -79.852126c       c -4.03c

Converged after 39 iterations.

Dipole moment: (-5.004117, -5.004117, 0.226644) |e|*Ang

Energy contributions relative to reference atoms: (reference = -1258438.268334)

Kinetic:       -206.551016
Potential:     +143.187296
External:        +0.000000
XC:             -16.895545
Entropy (-ST):   -1.101537
Local:           +0.957908
SIC:             +0.000000
--------------------------
Free energy:    -80.402895
Extrapolated:   -79.852126

Showing only first 2 kpts
 Kpt  Band  Eigenvalues  Occupancy
  0    63     -2.32921    1.14630
  0    64     -2.27252    0.86470
  0    65     -2.19550    0.52135
  0    66     -2.13705    0.32851

  1    63     -2.31914    1.09669
  1    64     -2.30409    1.02175
  1    65     -2.19615    0.52388
  1    66     -2.14845    0.36101


Fermi level: -2.29974

No gap
No difference between direct/indirect transitions
Timing:                              incl.     excl.
-----------------------------------------------------------
Basic WFS set positions:             0.000     0.000   0.0% |
Basis functions set positions:       0.063     0.063   0.0% |
LCAO WFS Initialize:                 0.203     0.028   0.0% |
 Hamiltonian:                        0.175     0.000   0.0% |
  Atomic:                            0.057     0.001   0.0% |
   XC Correction:                    0.056     0.056   0.0% |
  Calculate atomic Hamiltonians:     0.005     0.005   0.0% |
  Communicate:                       0.000     0.000   0.0% |
  Hartree integrate/restrict:        0.005     0.005   0.0% |
  Initialize Hamiltonian:            0.001     0.001   0.0% |
  Poisson:                           0.066     0.004   0.0% |
   Communicate from 1D:              0.006     0.006   0.0% |
   Communicate from 2D:              0.007     0.007   0.0% |
   Communicate to 1D:                0.007     0.007   0.0% |
   Communicate to 2D:                0.009     0.009   0.0% |
   FFT 1D:                           0.015     0.015   0.0% |
   FFT 2D:                           0.019     0.019   0.0% |
  XC 3D grid:                        0.040     0.040   0.0% |
  vbar:                              0.001     0.001   0.0% |
P tci:                               0.178     0.178   0.0% |
SCF-cycle:                         361.152     0.039   0.0% |
 Density:                          174.503     0.000   0.0% |
  Atomic density matrices:           0.044     0.044   0.0% |
  Mix:                               3.562     3.562   1.0% |
  Multipole moments:                 0.004     0.004   0.0% |
  Normalize:                         0.002     0.002   0.0% |
  Pseudo density:                  170.891     0.011   0.0% |
   Calculate density matrix:         0.699     0.699   0.2% |
   Construct density:              170.053   170.053  46.9% |------------------|
   Symmetrize density:               0.128     0.128   0.0% |
 Hamiltonian:                        8.171     0.002   0.0% |
  Atomic:                            2.314     0.029   0.0% |
   XC Correction:                    2.286     2.286   0.6% |
  Calculate atomic Hamiltonians:     0.211     0.211   0.1% |
  Communicate:                       0.000     0.000   0.0% |
  Hartree integrate/restrict:        0.217     0.217   0.1% |
  Poisson:                           2.303     0.175   0.0% |
   Communicate from 1D:              0.244     0.244   0.1% |
   Communicate from 2D:              0.255     0.255   0.1% |
   Communicate to 1D:                0.240     0.240   0.1% |
   Communicate to 2D:                0.258     0.258   0.1% |
   FFT 1D:                           0.425     0.425   0.1% |
   FFT 2D:                           0.707     0.707   0.2% |
  XC 3D grid:                        2.766     2.766   0.8% |
  vbar:                              0.359     0.359   0.1% |
 LCAO eigensolver:                 178.440     0.045   0.0% |
  Calculate projections:            12.305    12.305   3.4% ||
  DenseAtomicCorrection:            10.665    10.665   2.9% ||
  Distribute overlap matrix:         0.035     0.035   0.0% |
  Orbital Layouts:                 124.580   124.580  34.4% |-------------|
  Potential matrix:                 28.942    28.942   8.0% |--|
  Sum over cells:                    1.869     1.869   0.5% |
ST tci:                              0.121     0.121   0.0% |
Set symmetry:                        0.000     0.000   0.0% |
TCI: Evaluate splines:               0.385     0.385   0.1% |
mktci:                               0.004     0.004   0.0% |
Other:                               0.565     0.565   0.2% |
-----------------------------------------------------------
Total:                                       362.674 100.0%

Memory usage: 2.17 GiB
Date: Fri Feb 20 12:11:20 2026
