
  ___ ___ ___ _ _ _  
 |   |   |_  | | | | 
 | | | | | . | | | | 
 |__ |  _|___|_____|  25.7.0
 |___|_|             

User:   mikei@Z790-AORUS-ELITE-AX
Date:   Fri Feb 20 14:49:20 2026
Arch:   x86_64
Pid:    89048
CWD:    /home/mikei/Dokumenty/code/cemea/ocx
Python: 3.10.16
gpaw:   /home/mikei/.pyenv/versions/cemea-env/lib/python3.10/site-packages/gpaw
_gpaw:  /home/mikei/.pyenv/versions/cemea-env/lib/python3.10/site-packages/
        _gpaw.cpython-310-x86_64-linux-gnu.so
ase:    /home/mikei/.pyenv/versions/cemea-env/lib/python3.10/site-packages/ase (version 3.27.0)
numpy:  /home/mikei/.pyenv/versions/cemea-env/lib/python3.10/site-packages/numpy (version 2.2.6)
scipy:  /home/mikei/.pyenv/versions/cemea-env/lib/python3.10/site-packages/scipy (version 1.15.3)
libxc:  2.x.y
units:  Angstrom and eV
cores: 1
OpenMP: False
OMP_NUM_THREADS: 1

Input parameters:
  basis: dzp
  convergence: {density: 0.0001,
                eigenstates: 1e-05,
                energy: 1e-05}
  kpts: [4 4 1]
  mode: lcao

System changes: positions, numbers, cell, pbc, initial_charges, initial_magmoms 

Initialize ...

species:
  Mo:
    name: Molybdenum
    id: ac24daaf086600a00ce6d19a74574df1
    Z: 42.0
    valence: 14
    core: 28
    charge: 0.0
    file: /home/mikei/.pyenv/versions/cemea-env/lib/python3.10/site-packages/gpaw_data/setups/Mo.LDA.gz
    compensation charges: {type: gauss,
                           rc: 0.38,
                           lmax: 2}
    cutoffs: {filter: 2.16,
              core: 1.42}
    projectors:
      #              energy  rcut
      - 4s(2.00)   -64.384   1.238
      - 5s(1.00)    -4.319   1.238
      - 4p(6.00)   -38.595   1.296
      - 5p(0.00)    -1.161   1.296
      - 4d(5.00)    -3.933   1.296
      -  d          23.278   1.296
  
    # LCAO basis set for Mo:
    #   Name: dzp
    #   File: /home/mikei/.pyenv/versions/cemea-env/lib/python3.10/site-packages/gpaw_data/setups/Mo.dzp.basis.gz
    #   Number of radial functions: 11
    #   Number of spherical harmonics: 29
    #     l=0, rc=3.5469 Bohr: 4s-sz confined orbital
    #     l=0, rc=10.0469 Bohr: 5s-sz confined orbital
    #     l=1, rc=4.0781 Bohr: 4p-sz confined orbital
    #     l=1, rc=14.0938 Bohr: 5p-sz confined orbital
    #     l=2, rc=7.2031 Bohr: 4d-sz confined orbital
    #     l=0, rc=2.1250 Bohr: 4s-dz split-valence wave
    #     l=0, rc=6.1250 Bohr: 5s-dz split-valence wave
    #     l=1, rc=2.5469 Bohr: 4p-dz split-valence wave
    #     l=1, rc=8.7656 Bohr: 5p-dz split-valence wave
    #     l=2, rc=4.2344 Bohr: 4d-dz split-valence wave
    #     l=1, rc=10.0469 Bohr: p-type Gaussian polarization
    #   Number of RI-basis functions 0

  Au:
    name: Gold
    id: a44207148b704df7bec07bf25e8feca8
    Z: 79.0
    valence: 11
    core: 68
    charge: 0.0
    file: /home/mikei/.pyenv/versions/cemea-env/lib/python3.10/site-packages/gpaw_data/setups/Au.LDA.gz
    compensation charges: {type: gauss,
                           rc: 0.42,
                           lmax: 2}
    cutoffs: {filter: 2.33,
              core: 2.81}
    projectors:
      #              energy  rcut
      - 6s(1.00)    -6.048   1.323
      - 6p(0.00)    -0.888   1.323
      - 5d(10.00)    -7.129   1.323
      -  s          21.163   1.323
      -  p          26.323   1.323
      -  d          20.082   1.323
  
    # LCAO basis set for Au:
    #   Name: dzp
    #   File: /home/mikei/.pyenv/versions/cemea-env/lib/python3.10/site-packages/gpaw_data/setups/Au.dzp.basis.gz
    #   Number of radial functions: 5
    #   Number of spherical harmonics: 15
    #     l=0, rc=8.5938 Bohr: 6s-sz confined orbital
    #     l=2, rc=5.9219 Bohr: 5d-sz confined orbital
    #     l=0, rc=4.9844 Bohr: 6s-dz split-valence wave
    #     l=2, rc=3.5156 Bohr: 5d-dz split-valence wave
    #     l=1, rc=8.5938 Bohr: p-type Gaussian polarization
    #   Number of RI-basis functions 0

  C:
    name: Carbon
    id: d60576a1f549371a163e72552ca58787
    Z: 6.0
    valence: 4
    core: 2
    charge: 0.0
    file: /home/mikei/.pyenv/versions/cemea-env/lib/python3.10/site-packages/gpaw_data/setups/C.LDA.gz
    compensation charges: {type: gauss,
                           rc: 0.20,
                           lmax: 2}
    cutoffs: {filter: 1.14,
              core: 1.14}
    projectors:
      #              energy  rcut
      - 2s(2.00)   -13.639   0.635
      - 2p(2.00)    -5.414   0.635
      -  s          13.573   0.635
      -  p          21.797   0.635
      -  d           0.000   0.635
  
    # LCAO basis set for C:
    #   Name: dzp
    #   File: /home/mikei/.pyenv/versions/cemea-env/lib/python3.10/site-packages/gpaw_data/setups/C.dzp.basis.gz
    #   Number of radial functions: 5
    #   Number of spherical harmonics: 13
    #     l=0, rc=5.5469 Bohr: 2s-sz confined orbital
    #     l=1, rc=6.6719 Bohr: 2p-sz confined orbital
    #     l=0, rc=3.0312 Bohr: 2s-dz split-valence wave
    #     l=1, rc=3.7500 Bohr: 2p-dz split-valence wave
    #     l=2, rc=6.6719 Bohr: d-type Gaussian polarization
    #   Number of RI-basis functions 0

Reference energy: -1290527.474350  # eV

Spin-paired calculation

Convergence criteria:
 Maximum [total energy] change in last 3 cyles: 1e-05 eV / valence electron
 Maximum integral of absolute [dens]ity change: 0.0001 electrons / valence electron
 Maximum integral of absolute [eigenst]ate change: 1e-05 eV^2 / valence electron
 Maximum number of scf [iter]ations: 333
 (Square brackets indicate name in SCF output, whereas a 'c' in
 the SCF output indicates the quantity has converged.)

Symmetries present (total): 2

  ( 1  0  0)  ( 0  1  0)
  ( 0  1  0)  ( 1  0  0)
  ( 0  0  1)  ( 0  0  1)

16 k-points: 4 x 4 x 1 Monkhorst-Pack grid
6 k-points in the irreducible part of the Brillouin zone
       k-points in crystal coordinates                weights
   0:     0.12500000   -0.12500000    0.00000000          2/16
   1:     0.12500000    0.12500000    0.00000000          2/16
   2:     0.37500000   -0.37500000    0.00000000          2/16
   3:     0.37500000   -0.12500000    0.00000000          4/16
   4:     0.37500000    0.12500000    0.00000000          4/16
   5:     0.37500000    0.37500000    0.00000000          2/16

Wave functions: LCAO
  Diagonalizer: Serial LAPACK
  Atomic Correction: dense with blas
  Data-type: complex
 

Occupation numbers: Fermi-Dirac:
  width: 0.1000  # eV
 

Eigensolver
   LCAO using direct dense diagonalizer 

Densities:
  Coarse grid: 40*40*92 grid
  Fine grid: 80*80*184 grid
  Total Charge: 0.000000 

Density mixing:
  Method: separate
  Backend: pulay
  Linear mixing parameter: 0.05
  old densities: 5
  Damping of long wavelength oscillations: 50 

Hamiltonian:
  XC and Coulomb potentials evaluated on a 80*80*184 grid
  Using the LDA Exchange-Correlation functional
  Interpolation: tri-quintic (5. degree polynomial)
  Poisson solver: FastPoissonSolver using
    Stencil: 6*3+1=19 point O(h^6) finite-difference Laplacian
    FFT axes: [np.int64(0), np.int64(1), np.int64(2)]
    FST axes: []
 

Memory estimate:
  Process memory now: 2222.55 MiB
  Calculator: 196.26 MiB
    Density: 81.70 MiB
      Arrays: 29.20 MiB
      Localized functions: 41.27 MiB
      Mixer: 11.23 MiB
    Hamiltonian: 21.82 MiB
      Arrays: 19.09 MiB
      XC: 0.00 MiB
      Poisson: 0.00 MiB
      vbar: 2.73 MiB
    Wavefunctions: 92.73 MiB
      C [qnM]: 1.95 MiB
      S, T [2 x qmm]: 13.35 MiB
      P [aqMi]: 0.30 MiB
      BasisFunctions: 77.13 MiB
      Eigensolver: 0.00 MiB

Total number of cores used: 1

Number of atoms: 12
Number of atomic orbitals: 270
Number of bands in calculation: 79
Number of valence electrons: 125
Bands to converge: occupied

... initialized

Initializing position-dependent things.

Density initialized from atomic densities
      .-------------------.  
     /|                   |  
    / |                   |  
   /  |                   |  
  /   |                   |  
 *    |                   |  
 |    |                   |  
 |    |                   |  
 |    |                   |  
 |    |                   |  
 |    |                   |  
 |    |   Mo        Mo    |  
 |    |                   |  
 |    |Au        Mo       |  
 |    |   C         C     |  
 |  Mo|       Mo          |  
 |    |C         C        |  
 Mo   |    Mo             |  
 |    |                   |  
 |    |                   |  
 |    |                   |  
 |    |                   |  
 |    .-------------------.  
 |   /                   /   
 |  /                   /    
 | /                   /     
 |/                   /      
 *-------------------*       

Atomic positions and initial magnetic moments

Positions:
   0 Mo     0.000000    0.000000    8.000000    ( 0.0000,  0.0000,  0.0000)
   1 Au     2.060000    2.060000   10.060000    ( 0.0000,  0.0000,  0.0000)
   2 C      2.060000    2.060000    8.000000    ( 0.0000,  0.0000,  0.0000)
   3 Mo     0.000000    4.120000    8.000000    ( 0.0000,  0.0000,  0.0000)
   4 Mo     2.060000    6.180000   10.060000    ( 0.0000,  0.0000,  0.0000)
   5 C      2.060000    6.180000    8.000000    ( 0.0000,  0.0000,  0.0000)
   6 Mo     4.120000    0.000000    8.000000    ( 0.0000,  0.0000,  0.0000)
   7 Mo     6.180000    2.060000   10.060000    ( 0.0000,  0.0000,  0.0000)
   8 C      6.180000    2.060000    8.000000    ( 0.0000,  0.0000,  0.0000)
   9 Mo     4.120000    4.120000    8.000000    ( 0.0000,  0.0000,  0.0000)
  10 Mo     6.180000    6.180000   10.060000    ( 0.0000,  0.0000,  0.0000)
  11 C      6.180000    6.180000    8.000000    ( 0.0000,  0.0000,  0.0000)

Unit cell:
           periodic     x           y           z      points  spacing
  1. axis:    yes    8.240000    0.000000    0.000000    40     0.2060
  2. axis:    yes    0.000000    8.240000    0.000000    40     0.2060
  3. axis:    yes    0.000000    0.000000   18.060000    92     0.1963

  Lengths:   8.240000   8.240000  18.060000
  Angles:   90.000000  90.000000  90.000000

Effective grid spacing dv^(1/3) = 0.2027

     iter     time        total  log10-change:
                         energy   eigst   dens
iter:   1 14:49:24   -88.885719        c
iter:   2 14:49:34   -82.598918        c -0.87
iter:   3 14:49:43   -78.479993        c -0.98
iter:   4 14:49:56   -75.185772        c -1.05
iter:   5 14:50:05   -73.881002        c -1.22
iter:   6 14:50:16   -72.830460        c -1.33
iter:   7 14:50:27   -72.805421        c -1.70
iter:   8 14:50:35   -72.734270        c -1.80
iter:   9 14:50:41   -72.680832        c -1.94
iter:  10 14:50:49   -72.659491        c -2.03
iter:  11 14:51:05   -72.628669        c -2.10
iter:  12 14:51:15   -72.612122        c -2.14
iter:  13 14:51:25   -72.611773        c -2.36
iter:  14 14:51:31   -72.611043c       c -2.47
iter:  15 14:51:39   -72.610301        c -2.58
iter:  16 14:51:47   -72.607877        c -2.72
iter:  17 14:51:55   -72.608158        c -2.74
iter:  18 14:52:06   -72.607848c       c -2.86
iter:  19 14:52:16   -72.607384c       c -2.88
iter:  20 14:52:23   -72.607187c       c -2.94
iter:  21 14:52:30   -72.606967c       c -3.04
iter:  22 14:52:39   -72.607422c       c -3.20
iter:  23 14:52:47   -72.607123c       c -3.36
iter:  24 14:52:55   -72.607485c       c -3.36
iter:  25 14:53:02   -72.607721c       c -3.51
iter:  26 14:53:14   -72.607727c       c -3.61
iter:  27 14:53:25   -72.607807c       c -3.64
iter:  28 14:53:35   -72.607833c       c -3.78
iter:  29 14:53:42   -72.607744c       c -3.88
iter:  30 14:53:51   -72.607792c       c -3.92
iter:  31 14:53:59   -72.607781c       c -4.00c

Converged after 31 iterations.

Dipole moment: (-5.290353, -5.290353, 0.530781) |e|*Ang

Energy contributions relative to reference atoms: (reference = -1290527.474350)

Kinetic:       -209.004674
Potential:     +147.000765
External:        +0.000000
XC:             -11.076537
Entropy (-ST):   -1.097332
Local:           +1.021332
SIC:             +0.000000
--------------------------
Free energy:    -73.156447
Extrapolated:   -72.607781

Showing only first 2 kpts
 Kpt  Band  Eigenvalues  Occupancy
  0    60     -2.20924    1.30150
  0    61     -2.13515    0.94077
  0    62     -2.12159    0.87359
  0    63     -2.05480    0.56907

  1    60     -2.20924    1.30150
  1    61     -2.13515    0.94077
  1    62     -2.12159    0.87359
  1    63     -2.05480    0.56907


Fermi level: -2.14701

No gap
No difference between direct/indirect transitions
Timing:                              incl.     excl.
-----------------------------------------------------------
Basic WFS set positions:             0.000     0.000   0.0% |
Basis functions set positions:       0.060     0.060   0.0% |
LCAO WFS Initialize:                 0.206     0.028   0.0% |
 Hamiltonian:                        0.178     0.000   0.0% |
  Atomic:                            0.055     0.001   0.0% |
   XC Correction:                    0.054     0.054   0.0% |
  Calculate atomic Hamiltonians:     0.005     0.005   0.0% |
  Communicate:                       0.000     0.000   0.0% |
  Hartree integrate/restrict:        0.010     0.010   0.0% |
  Initialize Hamiltonian:            0.001     0.001   0.0% |
  Poisson:                           0.067     0.005   0.0% |
   Communicate from 1D:              0.006     0.006   0.0% |
   Communicate from 2D:              0.007     0.007   0.0% |
   Communicate to 1D:                0.007     0.007   0.0% |
   Communicate to 2D:                0.008     0.008   0.0% |
   FFT 1D:                           0.015     0.015   0.0% |
   FFT 2D:                           0.019     0.019   0.0% |
  XC 3D grid:                        0.040     0.040   0.0% |
  vbar:                              0.001     0.001   0.0% |
P tci:                               0.162     0.162   0.1% |
SCF-cycle:                         277.476     0.038   0.0% |
 Density:                          126.017     0.000   0.0% |
  Atomic density matrices:           0.033     0.033   0.0% |
  Mix:                               2.975     2.975   1.1% |
  Multipole moments:                 0.003     0.003   0.0% |
  Normalize:                         0.002     0.002   0.0% |
  Pseudo density:                  123.004     0.009   0.0% |
   Calculate density matrix:         0.709     0.709   0.3% |
   Construct density:              122.184   122.184  43.8% |-----------------|
   Symmetrize density:               0.102     0.102   0.0% |
 Hamiltonian:                        6.857     0.001   0.0% |
  Atomic:                            1.759     0.022   0.0% |
   XC Correction:                    1.736     1.736   0.6% |
  Calculate atomic Hamiltonians:     0.162     0.162   0.1% |
  Communicate:                       0.000     0.000   0.0% |
  Hartree integrate/restrict:        0.177     0.177   0.1% |
  Poisson:                           1.896     0.150   0.1% |
   Communicate from 1D:              0.195     0.195   0.1% |
   Communicate from 2D:              0.204     0.204   0.1% |
   Communicate to 1D:                0.170     0.170   0.1% |
   Communicate to 2D:                0.190     0.190   0.1% |
   FFT 1D:                           0.340     0.340   0.1% |
   FFT 2D:                           0.647     0.647   0.2% |
  XC 3D grid:                        2.463     2.463   0.9% |
  vbar:                              0.399     0.399   0.1% |
 LCAO eigensolver:                 144.564     0.030   0.0% |
  Calculate projections:            11.212    11.212   4.0% |-|
  DenseAtomicCorrection:             8.235     8.235   3.0% ||
  Distribute overlap matrix:         0.024     0.024   0.0% |
  Orbital Layouts:                 102.923   102.923  36.9% |--------------|
  Potential matrix:                 20.765    20.765   7.4% |--|
  Sum over cells:                    1.374     1.374   0.5% |
ST tci:                              0.111     0.111   0.0% |
Set symmetry:                        0.000     0.000   0.0% |
TCI: Evaluate splines:               0.233     0.233   0.1% |
mktci:                               0.004     0.004   0.0% |
Other:                               0.533     0.533   0.2% |
-----------------------------------------------------------
Total:                                       278.786 100.0%

Memory usage: 2.17 GiB
Date: Fri Feb 20 14:53:59 2026
