
  ___ ___ ___ _ _ _  
 |   |   |_  | | | | 
 | | | | | . | | | | 
 |__ |  _|___|_____|  25.7.0
 |___|_|             

User:   mikei@Z790-AORUS-ELITE-AX
Date:   Sun Feb 22 00:40:26 2026
Arch:   x86_64
Pid:    89048
CWD:    /home/mikei/Dokumenty/code/cemea/ocx
Python: 3.10.16
gpaw:   /home/mikei/.pyenv/versions/cemea-env/lib/python3.10/site-packages/gpaw
_gpaw:  /home/mikei/.pyenv/versions/cemea-env/lib/python3.10/site-packages/
        _gpaw.cpython-310-x86_64-linux-gnu.so
ase:    /home/mikei/.pyenv/versions/cemea-env/lib/python3.10/site-packages/ase (version 3.27.0)
numpy:  /home/mikei/.pyenv/versions/cemea-env/lib/python3.10/site-packages/numpy (version 2.2.6)
scipy:  /home/mikei/.pyenv/versions/cemea-env/lib/python3.10/site-packages/scipy (version 1.15.3)
libxc:  2.x.y
units:  Angstrom and eV
cores: 1
OpenMP: False
OMP_NUM_THREADS: 1

Input parameters:
  basis: dzp
  convergence: {density: 0.0001,
                eigenstates: 1e-05,
                energy: 1e-05}
  kpts: [4 4 1]
  mode: lcao

System changes: positions, numbers, cell, pbc, initial_charges, initial_magmoms 

Initialize ...

species:
  Ni:
    name: Nickel
    id: 1802175e8de9ea26d9f4394ec1a7d564
    Z: 28.0
    valence: 16
    core: 12
    charge: 0.0
    file: /home/mikei/.pyenv/versions/cemea-env/lib/python3.10/site-packages/gpaw_data/setups/Ni.LDA.gz
    compensation charges: {type: gauss,
                           rc: 0.36,
                           lmax: 2}
    cutoffs: {filter: 2.14,
              core: 1.98}
    projectors:
      #              energy  rcut
      - 4s(2.00)    -5.858   1.164
      - 3p(6.00)   -71.266   1.207
      - 4p(0.00)    -1.338   1.207
      - 3d(8.00)    -9.141   1.138
      -  s          21.353   1.164
      -  d          18.071   1.138
  
    # LCAO basis set for Ni:
    #   Name: dzp
    #   File: /home/mikei/.pyenv/versions/cemea-env/lib/python3.10/site-packages/gpaw_data/setups/Ni.dzp.basis.gz
    #   Number of radial functions: 9
    #   Number of spherical harmonics: 27
    #     l=0, rc=8.5156 Bohr: 4s-sz confined orbital
    #     l=1, rc=2.9375 Bohr: 3p-sz confined orbital
    #     l=1, rc=12.4062 Bohr: 4p-sz confined orbital
    #     l=2, rc=4.6875 Bohr: 3d-sz confined orbital
    #     l=0, rc=4.9688 Bohr: 4s-dz split-valence wave
    #     l=1, rc=2.0781 Bohr: 3p-dz split-valence wave
    #     l=1, rc=7.5469 Bohr: 4p-dz split-valence wave
    #     l=2, rc=2.9375 Bohr: 3d-dz split-valence wave
    #     l=1, rc=8.5156 Bohr: p-type Gaussian polarization
    #   Number of RI-basis functions 0

  Mo:
    name: Molybdenum
    id: ac24daaf086600a00ce6d19a74574df1
    Z: 42.0
    valence: 14
    core: 28
    charge: 0.0
    file: /home/mikei/.pyenv/versions/cemea-env/lib/python3.10/site-packages/gpaw_data/setups/Mo.LDA.gz
    compensation charges: {type: gauss,
                           rc: 0.38,
                           lmax: 2}
    cutoffs: {filter: 2.16,
              core: 1.42}
    projectors:
      #              energy  rcut
      - 4s(2.00)   -64.384   1.238
      - 5s(1.00)    -4.319   1.238
      - 4p(6.00)   -38.595   1.296
      - 5p(0.00)    -1.161   1.296
      - 4d(5.00)    -3.933   1.296
      -  d          23.278   1.296
  
    # LCAO basis set for Mo:
    #   Name: dzp
    #   File: /home/mikei/.pyenv/versions/cemea-env/lib/python3.10/site-packages/gpaw_data/setups/Mo.dzp.basis.gz
    #   Number of radial functions: 11
    #   Number of spherical harmonics: 29
    #     l=0, rc=3.5469 Bohr: 4s-sz confined orbital
    #     l=0, rc=10.0469 Bohr: 5s-sz confined orbital
    #     l=1, rc=4.0781 Bohr: 4p-sz confined orbital
    #     l=1, rc=14.0938 Bohr: 5p-sz confined orbital
    #     l=2, rc=7.2031 Bohr: 4d-sz confined orbital
    #     l=0, rc=2.1250 Bohr: 4s-dz split-valence wave
    #     l=0, rc=6.1250 Bohr: 5s-dz split-valence wave
    #     l=1, rc=2.5469 Bohr: 4p-dz split-valence wave
    #     l=1, rc=8.7656 Bohr: 5p-dz split-valence wave
    #     l=2, rc=4.2344 Bohr: 4d-dz split-valence wave
    #     l=1, rc=10.0469 Bohr: p-type Gaussian polarization
    #   Number of RI-basis functions 0

  C:
    name: Carbon
    id: d60576a1f549371a163e72552ca58787
    Z: 6.0
    valence: 4
    core: 2
    charge: 0.0
    file: /home/mikei/.pyenv/versions/cemea-env/lib/python3.10/site-packages/gpaw_data/setups/C.LDA.gz
    compensation charges: {type: gauss,
                           rc: 0.20,
                           lmax: 2}
    cutoffs: {filter: 1.14,
              core: 1.14}
    projectors:
      #              energy  rcut
      - 2s(2.00)   -13.639   0.635
      - 2p(2.00)    -5.414   0.635
      -  s          13.573   0.635
      -  p          21.797   0.635
      -  d           0.000   0.635
  
    # LCAO basis set for C:
    #   Name: dzp
    #   File: /home/mikei/.pyenv/versions/cemea-env/lib/python3.10/site-packages/gpaw_data/setups/C.dzp.basis.gz
    #   Number of radial functions: 5
    #   Number of spherical harmonics: 13
    #     l=0, rc=5.5469 Bohr: 2s-sz confined orbital
    #     l=1, rc=6.6719 Bohr: 2p-sz confined orbital
    #     l=0, rc=3.0312 Bohr: 2s-dz split-valence wave
    #     l=1, rc=3.7500 Bohr: 2p-dz split-valence wave
    #     l=2, rc=6.6719 Bohr: d-type Gaussian polarization
    #   Number of RI-basis functions 0

  Au:
    name: Gold
    id: a44207148b704df7bec07bf25e8feca8
    Z: 79.0
    valence: 11
    core: 68
    charge: 0.0
    file: /home/mikei/.pyenv/versions/cemea-env/lib/python3.10/site-packages/gpaw_data/setups/Au.LDA.gz
    compensation charges: {type: gauss,
                           rc: 0.42,
                           lmax: 2}
    cutoffs: {filter: 2.33,
              core: 2.81}
    projectors:
      #              energy  rcut
      - 6s(1.00)    -6.048   1.323
      - 6p(0.00)    -0.888   1.323
      - 5d(10.00)    -7.129   1.323
      -  s          21.163   1.323
      -  p          26.323   1.323
      -  d          20.082   1.323
  
    # LCAO basis set for Au:
    #   Name: dzp
    #   File: /home/mikei/.pyenv/versions/cemea-env/lib/python3.10/site-packages/gpaw_data/setups/Au.dzp.basis.gz
    #   Number of radial functions: 5
    #   Number of spherical harmonics: 15
    #     l=0, rc=8.5938 Bohr: 6s-sz confined orbital
    #     l=2, rc=5.9219 Bohr: 5d-sz confined orbital
    #     l=0, rc=4.9844 Bohr: 6s-dz split-valence wave
    #     l=2, rc=3.5156 Bohr: 5d-dz split-valence wave
    #     l=1, rc=8.5938 Bohr: p-type Gaussian polarization
    #   Number of RI-basis functions 0

Reference energy: -3403682.311638  # eV

Spin-paired calculation

Convergence criteria:
 Maximum [total energy] change in last 3 cyles: 1e-05 eV / valence electron
 Maximum integral of absolute [dens]ity change: 0.0001 electrons / valence electron
 Maximum integral of absolute [eigenst]ate change: 1e-05 eV^2 / valence electron
 Maximum number of scf [iter]ations: 333
 (Square brackets indicate name in SCF output, whereas a 'c' in
 the SCF output indicates the quantity has converged.)

Symmetries present (total): 1

  ( 1  0  0)
  ( 0  1  0)
  ( 0  0  1)

16 k-points: 4 x 4 x 1 Monkhorst-Pack grid
8 k-points in the irreducible part of the Brillouin zone
       k-points in crystal coordinates                weights
   0:     0.12500000   -0.37500000    0.00000000          2/16
   1:     0.12500000   -0.12500000    0.00000000          2/16
   2:     0.12500000    0.12500000    0.00000000          2/16
   3:     0.12500000    0.37500000    0.00000000          2/16
   4:     0.37500000   -0.37500000    0.00000000          2/16
   5:     0.37500000   -0.12500000    0.00000000          2/16
   6:     0.37500000    0.12500000    0.00000000          2/16
   7:     0.37500000    0.37500000    0.00000000          2/16

Wave functions: LCAO
  Diagonalizer: Serial LAPACK
  Atomic Correction: dense with blas
  Data-type: complex
 

Occupation numbers: Fermi-Dirac:
  width: 0.1000  # eV
 

Eigensolver
   LCAO using direct dense diagonalizer 

Densities:
  Coarse grid: 36*36*128 grid
  Fine grid: 72*72*256 grid
  Total Charge: 0.000000 

Density mixing:
  Method: separate
  Backend: pulay
  Linear mixing parameter: 0.05
  old densities: 5
  Damping of long wavelength oscillations: 50 

Hamiltonian:
  XC and Coulomb potentials evaluated on a 72*72*256 grid
  Using the LDA Exchange-Correlation functional
  Interpolation: tri-quintic (5. degree polynomial)
  Poisson solver: FastPoissonSolver using
    Stencil: 6*3+1=19 point O(h^6) finite-difference Laplacian
    FFT axes: [np.int64(0), np.int64(1), np.int64(2)]
    FST axes: []
 

Memory estimate:
  Process memory now: 4595.48 MiB
  Calculator: 1040.97 MiB
    Density: 231.97 MiB
      Arrays: 32.91 MiB
      Localized functions: 186.41 MiB
      Mixer: 12.66 MiB
    Hamiltonian: 35.35 MiB
      Arrays: 21.52 MiB
      XC: 0.00 MiB
      Poisson: 0.00 MiB
      vbar: 13.83 MiB
    Wavefunctions: 773.66 MiB
      C [qnM]: 69.07 MiB
      S, T [2 x qmm]: 403.76 MiB
      P [aqMi]: 8.63 MiB
      BasisFunctions: 292.19 MiB
      Eigensolver: 0.00 MiB

Total number of cores used: 1

Number of atoms: 50
Number of atomic orbitals: 1286
Number of bands in calculation: 440
Number of valence electrons: 726
Bands to converge: occupied

... initialized

Initializing position-dependent things.

Density initialized from atomic densities
      .-----------------.  
     /|                 |  
    / |                 |  
   /  |                 |  
  /   |                 |  
 *    |                 |  
 |    |                 |  
 |    |                 |  
 |    |                 |  
 |    |                 |  
 |    | Au    Au        |  
 |    |   Mo        Mo  |  
 |    |                 |  
 |    |Mo C      Mo C   |  
 |  Mo|       Mo        |  
 |    |                 |  
 |    |C         C      |  
 Mo Ni|   NMo   Ni      |  
 | Ni | NNi   NNi   Ni  |  
 |    |                 |  
 Ni   NNi   NNi   Ni    |  
 |  NNi   NNi   NNi     |  
 | Ni | NNi   NNi   Ni  |  
 |    |                 |  
 Ni   NNi   NNi   Ni    |  
 |   Ni    Ni    Ni     |  
 |    |                 |  
 |    |                 |  
 |    |                 |  
 |    |                 |  
 |    |                 |  
 |    .-----------------.  
 |   /                 /   
 |  /                 /    
 | /                 /     
 |/                 /      
 *-----------------*       

Atomic positions and initial magnetic moments

Positions:
   0 Ni     1.244508    1.244508    8.000000    ( 0.0000,  0.0000,  0.0000)
   1 Ni     3.733524    1.244508    8.000000    ( 0.0000,  0.0000,  0.0000)
   2 Ni     6.222540    1.244508    8.000000    ( 0.0000,  0.0000,  0.0000)
   3 Ni     1.244508    3.733524    8.000000    ( 0.0000,  0.0000,  0.0000)
   4 Ni     3.733524    3.733524    8.000000    ( 0.0000,  0.0000,  0.0000)
   5 Ni     6.222540    3.733524    8.000000    ( 0.0000,  0.0000,  0.0000)
   6 Ni     1.244508    6.222540    8.000000    ( 0.0000,  0.0000,  0.0000)
   7 Ni     3.733524    6.222540    8.000000    ( 0.0000,  0.0000,  0.0000)
   8 Ni     6.222540    6.222540    8.000000    ( 0.0000,  0.0000,  0.0000)
   9 Ni     0.000000    0.000000    9.760000    ( 0.0000,  0.0000,  0.0000)
  10 Ni     2.489016    0.000000    9.760000    ( 0.0000,  0.0000,  0.0000)
  11 Ni     4.978032    0.000000    9.760000    ( 0.0000,  0.0000,  0.0000)
  12 Ni     0.000000    2.489016    9.760000    ( 0.0000,  0.0000,  0.0000)
  13 Ni     2.489016    2.489016    9.760000    ( 0.0000,  0.0000,  0.0000)
  14 Ni     4.978032    2.489016    9.760000    ( 0.0000,  0.0000,  0.0000)
  15 Ni     0.000000    4.978032    9.760000    ( 0.0000,  0.0000,  0.0000)
  16 Ni     2.489016    4.978032    9.760000    ( 0.0000,  0.0000,  0.0000)
  17 Ni     4.978032    4.978032    9.760000    ( 0.0000,  0.0000,  0.0000)
  18 Ni     1.244508    1.244508   11.520000    ( 0.0000,  0.0000,  0.0000)
  19 Ni     3.733524    1.244508   11.520000    ( 0.0000,  0.0000,  0.0000)
  20 Ni     6.222540    1.244508   11.520000    ( 0.0000,  0.0000,  0.0000)
  21 Ni     1.244508    3.733524   11.520000    ( 0.0000,  0.0000,  0.0000)
  22 Ni     3.733524    3.733524   11.520000    ( 0.0000,  0.0000,  0.0000)
  23 Ni     6.222540    3.733524   11.520000    ( 0.0000,  0.0000,  0.0000)
  24 Ni     1.244508    6.222540   11.520000    ( 0.0000,  0.0000,  0.0000)
  25 Ni     3.733524    6.222540   11.520000    ( 0.0000,  0.0000,  0.0000)
  26 Ni     6.222540    6.222540   11.520000    ( 0.0000,  0.0000,  0.0000)
  27 Ni     0.000000    0.000000   13.280000    ( 0.0000,  0.0000,  0.0000)
  28 Ni     2.489016    0.000000   13.280000    ( 0.0000,  0.0000,  0.0000)
  29 Ni     4.978032    0.000000   13.280000    ( 0.0000,  0.0000,  0.0000)
  30 Ni     0.000000    2.489016   13.280000    ( 0.0000,  0.0000,  0.0000)
  31 Ni     2.489016    2.489016   13.280000    ( 0.0000,  0.0000,  0.0000)
  32 Ni     4.978032    2.489016   13.280000    ( 0.0000,  0.0000,  0.0000)
  33 Ni     0.000000    4.978032   13.280000    ( 0.0000,  0.0000,  0.0000)
  34 Ni     2.489016    4.978032   13.280000    ( 0.0000,  0.0000,  0.0000)
  35 Ni     4.978032    4.978032   13.280000    ( 0.0000,  0.0000,  0.0000)
  36 Mo     0.000000    0.000000   15.480000    ( 0.0000,  0.0000,  0.0000)
  37 Mo     2.060000    2.060000   17.540000    ( 0.0000,  0.0000,  0.0000)
  38 C      2.060000    2.060000   15.480000    ( 0.0000,  0.0000,  0.0000)
  39 Mo     0.000000    4.120000   15.480000    ( 0.0000,  0.0000,  0.0000)
  40 Mo     2.060000    6.180000   17.540000    ( 0.0000,  0.0000,  0.0000)
  41 C      2.060000    6.180000   15.480000    ( 0.0000,  0.0000,  0.0000)
  42 Mo     4.120000    0.000000   15.480000    ( 0.0000,  0.0000,  0.0000)
  43 Mo     6.180000    2.060000   17.540000    ( 0.0000,  0.0000,  0.0000)
  44 C      6.180000    2.060000   15.480000    ( 0.0000,  0.0000,  0.0000)
  45 Mo     4.120000    4.120000   15.480000    ( 0.0000,  0.0000,  0.0000)
  46 Mo     6.180000    6.180000   17.540000    ( 0.0000,  0.0000,  0.0000)
  47 C      6.180000    6.180000   15.480000    ( 0.0000,  0.0000,  0.0000)
  48 Au     1.991786    3.191786   19.340000    ( 0.0000,  0.0000,  0.0000)
  49 Au     4.391786    3.191786   19.340000    ( 0.0000,  0.0000,  0.0000)

Unit cell:
           periodic     x           y           z      points  spacing
  1. axis:    yes    7.467048    0.000000    0.000000    36     0.2074
  2. axis:    yes    0.000000    7.467048    0.000000    36     0.2074
  3. axis:    yes    0.000000    0.000000   25.540000   128     0.1995

  Lengths:   7.467048   7.467048  25.540000
  Angles:   90.000000  90.000000  90.000000

Effective grid spacing dv^(1/3) = 0.2048

     iter     time        total  log10-change:
                         energy   eigst   dens
iter:   1 00:40:56 -1222.246858        c
iter:   2 00:42:23 -3972.680788        c -0.89
iter:   3 00:43:54  -678.475013        c -0.44
iter:   4 00:45:22  -457.657839        c -1.13
iter:   5 00:46:54  -406.667806        c -1.38
iter:   6 00:48:26  -438.296193        c -1.51
iter:   7 00:49:55  -444.807261        c -1.31
iter:   8 00:51:25  -491.244216        c -1.48
iter:   9 00:52:57  -475.995732        c -1.37
iter:  10 00:54:28  -461.369280        c -1.44
iter:  11 00:55:55  -453.850945        c -1.54
iter:  12 00:57:23  -523.974211        c -1.54
iter:  13 00:58:54  -422.845537        c -1.14
iter:  14 01:00:25  -408.802305        c -1.62
iter:  15 01:01:57  -415.828584        c -1.66
iter:  16 01:03:30  -429.554693        c -1.67
iter:  17 01:04:59  -421.267178        c -1.63
iter:  18 01:06:29  -525.886820        c -1.63
iter:  19 01:08:04  -409.015297        c -1.14
iter:  20 01:09:39  -405.189453        c -1.72
iter:  21 01:11:11  -395.372771        c -1.73
iter:  22 01:12:47  -386.624089        c -1.78
iter:  23 01:14:21  -389.904935        c -1.81
iter:  24 01:15:57  -473.889235        c -1.75
iter:  25 01:17:30  -397.712727        c -1.27
iter:  26 01:19:07  -394.670439        c -1.69
iter:  27 01:20:41  -409.568793        c -1.78
iter:  28 01:22:11  -404.686201        c -1.64
iter:  29 01:23:39  -395.659431        c -1.78
iter:  30 01:25:11  -456.269549        c -1.92
iter:  31 01:26:43  -386.336534        c -1.27
iter:  32 01:28:11  -386.287471        c -2.02
iter:  33 01:29:39  -383.179990        c -2.01
iter:  34 01:31:07  -383.008240        c -2.10
iter:  35 01:32:36  -382.097299        c -2.07
iter:  36 01:34:12  -385.354485        c -2.16
iter:  37 01:35:40  -381.817679        c -1.89
iter:  38 01:37:16  -381.672863        c -2.22
iter:  39 01:38:44  -380.651929        c -2.15
iter:  40 01:40:12  -380.551928        c -2.36
iter:  41 01:41:41  -381.311871        c -2.42
iter:  42 01:43:10  -381.313414        c -2.25
iter:  43 01:44:45  -380.813428        c -2.21
iter:  44 01:46:13  -381.593108        c -2.39
iter:  45 01:47:42  -380.528570        c -2.18
iter:  46 01:49:13  -380.342069        c -2.49
iter:  47 01:50:45  -380.204597        c -2.61
iter:  48 01:52:19  -380.172940        c -2.87
iter:  49 01:53:52  -380.211782        c -2.71
iter:  50 01:55:20  -380.185694        c -2.75
iter:  51 01:56:47  -380.155018        c -2.87
iter:  52 01:58:18  -380.197415        c -2.93
iter:  53 01:59:51  -380.169194        c -2.91
iter:  54 02:01:19  -380.148580        c -3.10
iter:  55 02:02:50  -380.165021        c -3.14
iter:  56 02:04:21  -380.118008        c -3.08
iter:  57 02:05:51  -380.126290        c -2.90
iter:  58 02:07:20  -380.114283        c -3.46
iter:  59 02:08:47  -380.116259        c -3.45
iter:  60 02:10:19  -380.115977c       c -3.64
iter:  61 02:11:47  -380.113328c       c -3.67
iter:  62 02:13:15  -380.118554c       c -3.45
iter:  63 02:14:43  -380.117546c       c -3.62
iter:  64 02:16:15  -380.126028        c -3.56
iter:  65 02:17:46  -380.114563        c -3.52
iter:  66 02:19:16  -380.114258        c -3.69
iter:  67 02:20:44  -380.119930c       c -3.74
iter:  68 02:22:12  -380.116731c       c -3.76
iter:  69 02:23:43  -380.115271c       c -3.89
iter:  70 02:25:11  -380.115510c       c -3.83
iter:  71 02:26:38  -380.118600c       c -3.87
iter:  72 02:28:06  -380.118450c       c -3.86
iter:  73 02:29:34  -380.112580c       c -3.87
iter:  74 02:31:02  -380.113983c       c -3.72
iter:  75 02:32:36  -380.119204c       c -3.65
iter:  76 02:34:07  -380.116155c       c -3.87
iter:  77 02:35:38  -380.115731c       c -3.97
iter:  78 02:37:06  -380.115857c       c -4.11c

Converged after 78 iterations.

Dipole moment: (-7.817390, -7.398636, 0.479536) |e|*Ang

Energy contributions relative to reference atoms: (reference = -3403682.311638)

Kinetic:        +43.806862
Potential:      -32.806563
External:        +0.000000
XC:            -388.252276
Entropy (-ST):   -3.743799
Local:           -0.991980
SIC:             +0.000000
--------------------------
Free energy:   -381.987756
Extrapolated:  -380.115857

Showing only first 2 kpts
 Kpt  Band  Eigenvalues  Occupancy
  0   361      0.88212    1.22054
  0   362      0.88947    1.18530
  0   363      0.91452    1.06218
  0   364      0.92900    0.98981

  1   361      0.86146    1.31632
  1   362      0.87586    1.25011
  1   363      0.88534    1.20516
  1   364      0.90129    1.12768


Fermi level: 0.92697

No gap
No difference between direct/indirect transitions
Timing:                              incl.     excl.
-----------------------------------------------------------
Basic WFS set positions:             0.000     0.000   0.0% |
Basis functions set positions:       0.177     0.177   0.0% |
LCAO WFS Initialize:                 0.408     0.089   0.0% |
 Hamiltonian:                        0.319     0.000   0.0% |
  Atomic:                            0.162     0.002   0.0% |
   XC Correction:                    0.160     0.160   0.0% |
  Calculate atomic Hamiltonians:     0.027     0.027   0.0% |
  Communicate:                       0.000     0.000   0.0% |
  Hartree integrate/restrict:        0.006     0.006   0.0% |
  Initialize Hamiltonian:            0.000     0.000   0.0% |
  Poisson:                           0.078     0.006   0.0% |
   Communicate from 1D:              0.007     0.007   0.0% |
   Communicate from 2D:              0.006     0.006   0.0% |
   Communicate to 1D:                0.011     0.011   0.0% |
   Communicate to 2D:                0.011     0.011   0.0% |
   FFT 1D:                           0.008     0.008   0.0% |
   FFT 2D:                           0.028     0.028   0.0% |
  XC 3D grid:                        0.046     0.046   0.0% |
  vbar:                              0.001     0.001   0.0% |
P tci:                               5.235     5.235   0.1% |
SCF-cycle:                        6988.031     0.279   0.0% |
 Density:                         5387.670     0.001   0.0% |
  Atomic density matrices:           1.498     1.498   0.0% |
  Mix:                               8.314     8.314   0.1% |
  Multipole moments:                 0.022     0.022   0.0% |
  Normalize:                         0.009     0.009   0.0% |
  Pseudo density:                 5377.825     0.032   0.0% |
   Calculate density matrix:        11.927    11.927   0.2% |
   Construct density:             5365.864  5365.864  76.7% |------------------------------|
   Symmetrize density:               0.001     0.001   0.0% |
 Hamiltonian:                       25.735     0.003   0.0% |
  Atomic:                           12.463     0.137   0.0% |
   XC Correction:                   12.326    12.326   0.2% |
  Calculate atomic Hamiltonians:     2.042     2.042   0.0% |
  Communicate:                       0.000     0.000   0.0% |
  Hartree integrate/restrict:        0.455     0.455   0.0% |
  Poisson:                           5.594     0.435   0.0% |
   Communicate from 1D:              0.619     0.619   0.0% |
   Communicate from 2D:              0.467     0.467   0.0% |
   Communicate to 1D:                0.565     0.565   0.0% |
   Communicate to 2D:                0.767     0.767   0.0% |
   FFT 1D:                           0.607     0.607   0.0% |
   FFT 2D:                           2.134     2.134   0.0% |
  XC 3D grid:                        4.494     4.494   0.1% |
  vbar:                              0.683     0.683   0.0% |
 LCAO eigensolver:                1574.347     2.650   0.0% |
  Calculate projections:            65.301    65.301   0.9% |
  DenseAtomicCorrection:           267.082   267.082   3.8% |-|
  Distribute overlap matrix:         5.096     5.096   0.1% |
  Orbital Layouts:                 371.267   371.267   5.3% |-|
  Potential matrix:                821.466   821.466  11.7% |----|
  Sum over cells:                   41.484    41.484   0.6% |
ST tci:                              1.942     1.942   0.0% |
Set symmetry:                        0.000     0.000   0.0% |
TCI: Evaluate splines:               0.468     0.468   0.0% |
mktci:                               0.025     0.025   0.0% |
Other:                               4.110     4.110   0.1% |
-----------------------------------------------------------
Total:                                      7000.397 100.0%

Memory usage: 4.49 GiB
Date: Sun Feb 22 02:37:06 2026
