
  ___ ___ ___ _ _ _  
 |   |   |_  | | | | 
 | | | | | . | | | | 
 |__ |  _|___|_____|  25.7.0
 |___|_|             

User:   mikei@Z790-AORUS-ELITE-AX
Date:   Sun Feb 22 02:37:06 2026
Arch:   x86_64
Pid:    89048
CWD:    /home/mikei/Dokumenty/code/cemea/ocx
Python: 3.10.16
gpaw:   /home/mikei/.pyenv/versions/cemea-env/lib/python3.10/site-packages/gpaw
_gpaw:  /home/mikei/.pyenv/versions/cemea-env/lib/python3.10/site-packages/
        _gpaw.cpython-310-x86_64-linux-gnu.so
ase:    /home/mikei/.pyenv/versions/cemea-env/lib/python3.10/site-packages/ase (version 3.27.0)
numpy:  /home/mikei/.pyenv/versions/cemea-env/lib/python3.10/site-packages/numpy (version 2.2.6)
scipy:  /home/mikei/.pyenv/versions/cemea-env/lib/python3.10/site-packages/scipy (version 1.15.3)
libxc:  2.x.y
units:  Angstrom and eV
cores: 1
OpenMP: False
OMP_NUM_THREADS: 1

Input parameters:
  basis: dzp
  convergence: {density: 0.0001,
                eigenstates: 1e-05,
                energy: 1e-05}
  kpts: [4 4 1]
  mode: lcao

System changes: positions, numbers, cell, pbc, initial_charges, initial_magmoms 

Initialize ...

species:
  Ni:
    name: Nickel
    id: 1802175e8de9ea26d9f4394ec1a7d564
    Z: 28.0
    valence: 16
    core: 12
    charge: 0.0
    file: /home/mikei/.pyenv/versions/cemea-env/lib/python3.10/site-packages/gpaw_data/setups/Ni.LDA.gz
    compensation charges: {type: gauss,
                           rc: 0.36,
                           lmax: 2}
    cutoffs: {filter: 2.14,
              core: 1.98}
    projectors:
      #              energy  rcut
      - 4s(2.00)    -5.858   1.164
      - 3p(6.00)   -71.266   1.207
      - 4p(0.00)    -1.338   1.207
      - 3d(8.00)    -9.141   1.138
      -  s          21.353   1.164
      -  d          18.071   1.138
  
    # LCAO basis set for Ni:
    #   Name: dzp
    #   File: /home/mikei/.pyenv/versions/cemea-env/lib/python3.10/site-packages/gpaw_data/setups/Ni.dzp.basis.gz
    #   Number of radial functions: 9
    #   Number of spherical harmonics: 27
    #     l=0, rc=8.5156 Bohr: 4s-sz confined orbital
    #     l=1, rc=2.9375 Bohr: 3p-sz confined orbital
    #     l=1, rc=12.4062 Bohr: 4p-sz confined orbital
    #     l=2, rc=4.6875 Bohr: 3d-sz confined orbital
    #     l=0, rc=4.9688 Bohr: 4s-dz split-valence wave
    #     l=1, rc=2.0781 Bohr: 3p-dz split-valence wave
    #     l=1, rc=7.5469 Bohr: 4p-dz split-valence wave
    #     l=2, rc=2.9375 Bohr: 3d-dz split-valence wave
    #     l=1, rc=8.5156 Bohr: p-type Gaussian polarization
    #   Number of RI-basis functions 0

  Mo:
    name: Molybdenum
    id: ac24daaf086600a00ce6d19a74574df1
    Z: 42.0
    valence: 14
    core: 28
    charge: 0.0
    file: /home/mikei/.pyenv/versions/cemea-env/lib/python3.10/site-packages/gpaw_data/setups/Mo.LDA.gz
    compensation charges: {type: gauss,
                           rc: 0.38,
                           lmax: 2}
    cutoffs: {filter: 2.16,
              core: 1.42}
    projectors:
      #              energy  rcut
      - 4s(2.00)   -64.384   1.238
      - 5s(1.00)    -4.319   1.238
      - 4p(6.00)   -38.595   1.296
      - 5p(0.00)    -1.161   1.296
      - 4d(5.00)    -3.933   1.296
      -  d          23.278   1.296
  
    # LCAO basis set for Mo:
    #   Name: dzp
    #   File: /home/mikei/.pyenv/versions/cemea-env/lib/python3.10/site-packages/gpaw_data/setups/Mo.dzp.basis.gz
    #   Number of radial functions: 11
    #   Number of spherical harmonics: 29
    #     l=0, rc=3.5469 Bohr: 4s-sz confined orbital
    #     l=0, rc=10.0469 Bohr: 5s-sz confined orbital
    #     l=1, rc=4.0781 Bohr: 4p-sz confined orbital
    #     l=1, rc=14.0938 Bohr: 5p-sz confined orbital
    #     l=2, rc=7.2031 Bohr: 4d-sz confined orbital
    #     l=0, rc=2.1250 Bohr: 4s-dz split-valence wave
    #     l=0, rc=6.1250 Bohr: 5s-dz split-valence wave
    #     l=1, rc=2.5469 Bohr: 4p-dz split-valence wave
    #     l=1, rc=8.7656 Bohr: 5p-dz split-valence wave
    #     l=2, rc=4.2344 Bohr: 4d-dz split-valence wave
    #     l=1, rc=10.0469 Bohr: p-type Gaussian polarization
    #   Number of RI-basis functions 0

  C:
    name: Carbon
    id: d60576a1f549371a163e72552ca58787
    Z: 6.0
    valence: 4
    core: 2
    charge: 0.0
    file: /home/mikei/.pyenv/versions/cemea-env/lib/python3.10/site-packages/gpaw_data/setups/C.LDA.gz
    compensation charges: {type: gauss,
                           rc: 0.20,
                           lmax: 2}
    cutoffs: {filter: 1.14,
              core: 1.14}
    projectors:
      #              energy  rcut
      - 2s(2.00)   -13.639   0.635
      - 2p(2.00)    -5.414   0.635
      -  s          13.573   0.635
      -  p          21.797   0.635
      -  d           0.000   0.635
  
    # LCAO basis set for C:
    #   Name: dzp
    #   File: /home/mikei/.pyenv/versions/cemea-env/lib/python3.10/site-packages/gpaw_data/setups/C.dzp.basis.gz
    #   Number of radial functions: 5
    #   Number of spherical harmonics: 13
    #     l=0, rc=5.5469 Bohr: 2s-sz confined orbital
    #     l=1, rc=6.6719 Bohr: 2p-sz confined orbital
    #     l=0, rc=3.0312 Bohr: 2s-dz split-valence wave
    #     l=1, rc=3.7500 Bohr: 2p-dz split-valence wave
    #     l=2, rc=6.6719 Bohr: d-type Gaussian polarization
    #   Number of RI-basis functions 0

  Au:
    name: Gold
    id: a44207148b704df7bec07bf25e8feca8
    Z: 79.0
    valence: 11
    core: 68
    charge: 0.0
    file: /home/mikei/.pyenv/versions/cemea-env/lib/python3.10/site-packages/gpaw_data/setups/Au.LDA.gz
    compensation charges: {type: gauss,
                           rc: 0.42,
                           lmax: 2}
    cutoffs: {filter: 2.33,
              core: 2.81}
    projectors:
      #              energy  rcut
      - 6s(1.00)    -6.048   1.323
      - 6p(0.00)    -0.888   1.323
      - 5d(10.00)    -7.129   1.323
      -  s          21.163   1.323
      -  p          26.323   1.323
      -  d          20.082   1.323
  
    # LCAO basis set for Au:
    #   Name: dzp
    #   File: /home/mikei/.pyenv/versions/cemea-env/lib/python3.10/site-packages/gpaw_data/setups/Au.dzp.basis.gz
    #   Number of radial functions: 5
    #   Number of spherical harmonics: 15
    #     l=0, rc=8.5938 Bohr: 6s-sz confined orbital
    #     l=2, rc=5.9219 Bohr: 5d-sz confined orbital
    #     l=0, rc=4.9844 Bohr: 6s-dz split-valence wave
    #     l=2, rc=3.5156 Bohr: 5d-dz split-valence wave
    #     l=1, rc=8.5938 Bohr: p-type Gaussian polarization
    #   Number of RI-basis functions 0

  H:
    name: Hydrogen
    id: 4766778ce56282eaa64abeb28b7c1de3
    Z: 1.0
    valence: 1
    core: 0
    charge: 0.0
    file: /home/mikei/.pyenv/versions/cemea-env/lib/python3.10/site-packages/gpaw_data/setups/H.LDA.gz
    compensation charges: {type: gauss,
                           rc: 0.15,
                           lmax: 2}
    cutoffs: {filter: 0.85,
              core: 0.53}
    projectors:
      #              energy  rcut
      - 1s(1.00)    -6.353   0.476
      -  s          20.858   0.476
      -  p           0.000   0.476
  
    # LCAO basis set for H:
    #   Name: dzp
    #   File: /home/mikei/.pyenv/versions/cemea-env/lib/python3.10/site-packages/gpaw_data/setups/H.dzp.basis.gz
    #   Number of radial functions: 3
    #   Number of spherical harmonics: 5
    #     l=0, rc=6.4219 Bohr: 1s-sz confined orbital
    #     l=0, rc=3.6094 Bohr: 1s-dz split-valence wave
    #     l=1, rc=6.4219 Bohr: p-type Gaussian polarization
    #   Number of RI-basis functions 0

Reference energy: -3403694.440597  # eV

Spin-paired calculation

Convergence criteria:
 Maximum [total energy] change in last 3 cyles: 1e-05 eV / valence electron
 Maximum integral of absolute [dens]ity change: 0.0001 electrons / valence electron
 Maximum integral of absolute [eigenst]ate change: 1e-05 eV^2 / valence electron
 Maximum number of scf [iter]ations: 333
 (Square brackets indicate name in SCF output, whereas a 'c' in
 the SCF output indicates the quantity has converged.)

Symmetries present (total): 1

  ( 1  0  0)
  ( 0  1  0)
  ( 0  0  1)

16 k-points: 4 x 4 x 1 Monkhorst-Pack grid
8 k-points in the irreducible part of the Brillouin zone
       k-points in crystal coordinates                weights
   0:     0.12500000   -0.37500000    0.00000000          2/16
   1:     0.12500000   -0.12500000    0.00000000          2/16
   2:     0.12500000    0.12500000    0.00000000          2/16
   3:     0.12500000    0.37500000    0.00000000          2/16
   4:     0.37500000   -0.37500000    0.00000000          2/16
   5:     0.37500000   -0.12500000    0.00000000          2/16
   6:     0.37500000    0.12500000    0.00000000          2/16
   7:     0.37500000    0.37500000    0.00000000          2/16

Wave functions: LCAO
  Diagonalizer: Serial LAPACK
  Atomic Correction: dense with blas
  Data-type: complex
 

Occupation numbers: Fermi-Dirac:
  width: 0.1000  # eV
 

Eigensolver
   LCAO using direct dense diagonalizer 

Densities:
  Coarse grid: 36*36*128 grid
  Fine grid: 72*72*256 grid
  Total Charge: 0.000000 

Density mixing:
  Method: separate
  Backend: pulay
  Linear mixing parameter: 0.05
  old densities: 5
  Damping of long wavelength oscillations: 50 

Hamiltonian:
  XC and Coulomb potentials evaluated on a 72*72*256 grid
  Using the LDA Exchange-Correlation functional
  Interpolation: tri-quintic (5. degree polynomial)
  Poisson solver: FastPoissonSolver using
    Stencil: 6*3+1=19 point O(h^6) finite-difference Laplacian
    FFT axes: [np.int64(0), np.int64(1), np.int64(2)]
    FST axes: []
 

Memory estimate:
  Process memory now: 4595.48 MiB
  Calculator: 1045.49 MiB
    Density: 232.20 MiB
      Arrays: 32.91 MiB
      Localized functions: 186.64 MiB
      Mixer: 12.66 MiB
    Hamiltonian: 35.37 MiB
      Arrays: 21.52 MiB
      XC: 0.00 MiB
      Poisson: 0.00 MiB
      vbar: 13.85 MiB
    Wavefunctions: 777.92 MiB
      C [qnM]: 69.50 MiB
      S, T [2 x qmm]: 406.90 MiB
      P [aqMi]: 8.72 MiB
      BasisFunctions: 292.80 MiB
      Eigensolver: 0.00 MiB

Total number of cores used: 1

Number of atoms: 51
Number of atomic orbitals: 1291
Number of bands in calculation: 441
Number of valence electrons: 727
Bands to converge: occupied

... initialized

Initializing position-dependent things.

Density initialized from atomic densities
      .-----------------.  
     /|                 |  
    / |                 |  
   /  |                 |  
  /   |                 |  
 *    |                 |  
 |    |                 |  
 |    |                 |  
 |    |                 |  
 |    |    H            |  
 |    | Au    Au        |  
 |    |   Mo        Mo  |  
 |    |                 |  
 |    |Mo C      Mo C   |  
 |  Mo|       Mo        |  
 |    |                 |  
 |    |C         C      |  
 Mo Ni|   NMo   Ni      |  
 | Ni | NNi   NNi   Ni  |  
 |    |                 |  
 Ni   NNi   NNi   Ni    |  
 |  NNi   NNi   NNi     |  
 | Ni | NNi   NNi   Ni  |  
 |    |                 |  
 Ni   NNi   NNi   Ni    |  
 |   Ni    Ni    Ni     |  
 |    |                 |  
 |    |                 |  
 |    |                 |  
 |    |                 |  
 |    |                 |  
 |    .-----------------.  
 |   /                 /   
 |  /                 /    
 | /                 /     
 |/                 /      
 *-----------------*       

Atomic positions and initial magnetic moments

Positions:
   0 Ni     1.244508    1.244508    8.000000    ( 0.0000,  0.0000,  0.0000)
   1 Ni     3.733524    1.244508    8.000000    ( 0.0000,  0.0000,  0.0000)
   2 Ni     6.222540    1.244508    8.000000    ( 0.0000,  0.0000,  0.0000)
   3 Ni     1.244508    3.733524    8.000000    ( 0.0000,  0.0000,  0.0000)
   4 Ni     3.733524    3.733524    8.000000    ( 0.0000,  0.0000,  0.0000)
   5 Ni     6.222540    3.733524    8.000000    ( 0.0000,  0.0000,  0.0000)
   6 Ni     1.244508    6.222540    8.000000    ( 0.0000,  0.0000,  0.0000)
   7 Ni     3.733524    6.222540    8.000000    ( 0.0000,  0.0000,  0.0000)
   8 Ni     6.222540    6.222540    8.000000    ( 0.0000,  0.0000,  0.0000)
   9 Ni     0.000000    0.000000    9.760000    ( 0.0000,  0.0000,  0.0000)
  10 Ni     2.489016    0.000000    9.760000    ( 0.0000,  0.0000,  0.0000)
  11 Ni     4.978032    0.000000    9.760000    ( 0.0000,  0.0000,  0.0000)
  12 Ni     0.000000    2.489016    9.760000    ( 0.0000,  0.0000,  0.0000)
  13 Ni     2.489016    2.489016    9.760000    ( 0.0000,  0.0000,  0.0000)
  14 Ni     4.978032    2.489016    9.760000    ( 0.0000,  0.0000,  0.0000)
  15 Ni     0.000000    4.978032    9.760000    ( 0.0000,  0.0000,  0.0000)
  16 Ni     2.489016    4.978032    9.760000    ( 0.0000,  0.0000,  0.0000)
  17 Ni     4.978032    4.978032    9.760000    ( 0.0000,  0.0000,  0.0000)
  18 Ni     1.244508    1.244508   11.520000    ( 0.0000,  0.0000,  0.0000)
  19 Ni     3.733524    1.244508   11.520000    ( 0.0000,  0.0000,  0.0000)
  20 Ni     6.222540    1.244508   11.520000    ( 0.0000,  0.0000,  0.0000)
  21 Ni     1.244508    3.733524   11.520000    ( 0.0000,  0.0000,  0.0000)
  22 Ni     3.733524    3.733524   11.520000    ( 0.0000,  0.0000,  0.0000)
  23 Ni     6.222540    3.733524   11.520000    ( 0.0000,  0.0000,  0.0000)
  24 Ni     1.244508    6.222540   11.520000    ( 0.0000,  0.0000,  0.0000)
  25 Ni     3.733524    6.222540   11.520000    ( 0.0000,  0.0000,  0.0000)
  26 Ni     6.222540    6.222540   11.520000    ( 0.0000,  0.0000,  0.0000)
  27 Ni     0.000000    0.000000   13.280000    ( 0.0000,  0.0000,  0.0000)
  28 Ni     2.489016    0.000000   13.280000    ( 0.0000,  0.0000,  0.0000)
  29 Ni     4.978032    0.000000   13.280000    ( 0.0000,  0.0000,  0.0000)
  30 Ni     0.000000    2.489016   13.280000    ( 0.0000,  0.0000,  0.0000)
  31 Ni     2.489016    2.489016   13.280000    ( 0.0000,  0.0000,  0.0000)
  32 Ni     4.978032    2.489016   13.280000    ( 0.0000,  0.0000,  0.0000)
  33 Ni     0.000000    4.978032   13.280000    ( 0.0000,  0.0000,  0.0000)
  34 Ni     2.489016    4.978032   13.280000    ( 0.0000,  0.0000,  0.0000)
  35 Ni     4.978032    4.978032   13.280000    ( 0.0000,  0.0000,  0.0000)
  36 Mo     0.000000    0.000000   15.480000    ( 0.0000,  0.0000,  0.0000)
  37 Mo     2.060000    2.060000   17.540000    ( 0.0000,  0.0000,  0.0000)
  38 C      2.060000    2.060000   15.480000    ( 0.0000,  0.0000,  0.0000)
  39 Mo     0.000000    4.120000   15.480000    ( 0.0000,  0.0000,  0.0000)
  40 Mo     2.060000    6.180000   17.540000    ( 0.0000,  0.0000,  0.0000)
  41 C      2.060000    6.180000   15.480000    ( 0.0000,  0.0000,  0.0000)
  42 Mo     4.120000    0.000000   15.480000    ( 0.0000,  0.0000,  0.0000)
  43 Mo     6.180000    2.060000   17.540000    ( 0.0000,  0.0000,  0.0000)
  44 C      6.180000    2.060000   15.480000    ( 0.0000,  0.0000,  0.0000)
  45 Mo     4.120000    4.120000   15.480000    ( 0.0000,  0.0000,  0.0000)
  46 Mo     6.180000    6.180000   17.540000    ( 0.0000,  0.0000,  0.0000)
  47 C      6.180000    6.180000   15.480000    ( 0.0000,  0.0000,  0.0000)
  48 Au     1.991786    3.191786   19.340000    ( 0.0000,  0.0000,  0.0000)
  49 Au     4.391786    3.191786   19.340000    ( 0.0000,  0.0000,  0.0000)
  50 H      3.191786    3.191786   20.840000    ( 0.0000,  0.0000,  0.0000)

Unit cell:
           periodic     x           y           z      points  spacing
  1. axis:    yes    7.467048    0.000000    0.000000    36     0.2074
  2. axis:    yes    0.000000    7.467048    0.000000    36     0.2074
  3. axis:    yes    0.000000    0.000000   25.540000   128     0.1995

  Lengths:   7.467048   7.467048  25.540000
  Angles:   90.000000  90.000000  90.000000

Effective grid spacing dv^(1/3) = 0.2048

     iter     time        total  log10-change:
                         energy   eigst   dens
iter:   1 02:37:41 -1240.545101        c
iter:   2 02:39:11 -4069.409278        c -0.89
iter:   3 02:40:39  -683.695679        c -0.43
iter:   4 02:42:11  -458.114266        c -1.13
iter:   5 02:43:51  -405.215698        c -1.39
iter:   6 02:45:24  -444.087158        c -1.51
iter:   7 02:46:53  -444.048360        c -1.30
iter:   8 02:48:24  -487.303638        c -1.49
iter:   9 02:49:56  -474.489960        c -1.38
iter:  10 02:51:29  -454.685677        c -1.45
iter:  11 02:52:57  -452.082267        c -1.57
iter:  12 02:54:26  -548.636693        c -1.55
iter:  13 02:55:57  -423.279735        c -1.11
iter:  14 02:57:27  -410.704104        c -1.64
iter:  15 02:58:57  -416.767281        c -1.68
iter:  16 03:00:25  -430.165963        c -1.68
iter:  17 03:01:55  -427.775923        c -1.66
iter:  18 03:03:28  -541.433711        c -1.62
iter:  19 03:05:02  -407.763018        c -1.13
iter:  20 03:06:34  -402.157544        c -1.75
iter:  21 03:08:07  -390.528089        c -1.74
iter:  22 03:09:35  -385.855293        c -1.84
iter:  23 03:11:11  -386.514412        c -1.87
iter:  24 03:12:45  -445.624821        c -1.84
iter:  25 03:14:16  -400.403136        c -1.39
iter:  26 03:15:47  -397.200280        c -1.69
iter:  27 03:17:18  -408.401895        c -1.74
iter:  28 03:18:46  -420.564774        c -1.68
iter:  29 03:20:20  -415.966656        c -1.66
iter:  30 03:21:54  -446.303542        c -1.72
iter:  31 03:23:27  -397.599606        c -1.31
iter:  32 03:24:55  -392.333044        c -1.83
iter:  33 03:26:27  -395.087291        c -1.85
iter:  34 03:28:02  -395.596062        c -1.82
iter:  35 03:29:30  -409.646911        c -1.82
iter:  36 03:31:07  -438.272131        c -1.76
iter:  37 03:32:35  -392.392516        c -1.32
iter:  38 03:34:05  -387.249522        c -1.99
iter:  39 03:35:33  -388.160048        c -1.98
iter:  40 03:37:04  -387.295362        c -1.96
iter:  41 03:38:33  -387.649893        c -1.98
iter:  42 03:40:04  -389.760836        c -1.97
iter:  43 03:41:43  -390.363997        c -1.92
iter:  44 03:43:11  -384.238212        c -1.98
iter:  45 03:44:45  -385.331853        c -2.17
iter:  46 03:46:13  -383.932800        c -2.05
iter:  47 03:47:41  -385.709451        c -2.30
iter:  48 03:49:09  -384.374288        c -2.22
iter:  49 03:50:41  -383.777798        c -2.27
iter:  50 03:52:09  -391.055708        c -2.41
iter:  51 03:53:36  -383.621510        c -1.78
iter:  52 03:55:10  -383.991528        c -2.40
iter:  53 03:56:41  -383.297327        c -2.30
iter:  54 03:58:09  -383.451370        c -2.60
iter:  55 03:59:37  -383.211492        c -2.53
iter:  56 04:01:09  -383.134541        c -2.73
iter:  57 04:02:40  -383.115196        c -2.87
iter:  58 04:04:15  -383.129978        c -3.04
iter:  59 04:05:46  -383.135604        c -3.04
iter:  60 04:07:14  -383.174565        c -3.08
iter:  61 04:08:42  -383.334033        c -2.98
iter:  62 04:10:10  -383.113896        c -2.53
iter:  63 04:11:41  -383.113835        c -3.32
iter:  64 04:13:20  -383.099507        c -3.36
iter:  65 04:14:57  -383.099171        c -3.32
iter:  66 04:16:25  -383.101694c       c -3.46
iter:  67 04:17:55  -383.109446        c -3.37
iter:  68 04:19:23  -383.097673        c -3.42
iter:  69 04:20:51  -383.097867        c -3.48
iter:  70 04:22:23  -383.107406        c -3.50
iter:  71 04:23:57  -383.100639        c -3.52
iter:  72 04:25:38  -383.128750        c -3.62
iter:  73 04:27:11  -383.093170        c -3.18
iter:  74 04:28:41  -383.098110        c -3.46
iter:  75 04:30:16  -383.098045c       c -3.59
iter:  76 04:31:44  -383.097654c       c -3.70
iter:  77 04:33:13  -383.097625c       c -3.74
iter:  78 04:34:43  -383.094161c       c -3.75
iter:  79 04:36:12  -383.102849        c -3.33
iter:  80 04:37:46  -383.110669        c -3.54
iter:  81 04:39:20  -383.099234        c -3.43
iter:  82 04:40:48  -383.096679        c -3.81
iter:  83 04:42:18  -383.096909c       c -3.88
iter:  84 04:43:48  -383.098527c       c -3.93
iter:  85 04:45:18  -383.097342c       c -3.95
iter:  86 04:46:49  -383.093541c       c -3.89
iter:  87 04:48:17  -383.096079c       c -3.56
iter:  88 04:49:50  -383.099076c       c -3.82
iter:  89 04:51:18  -383.097696c       c -3.93
iter:  90 04:52:54  -383.096381c       c -4.02c

Converged after 90 iterations.

Dipole moment: (-7.766723, -7.417311, 0.377455) |e|*Ang

Energy contributions relative to reference atoms: (reference = -3403694.440597)

Kinetic:        +42.843124
Potential:      -32.505220
External:        +0.000000
XC:            -390.514382
Entropy (-ST):   -3.739727
Local:           -1.050039
SIC:             +0.000000
--------------------------
Free energy:   -384.966244
Extrapolated:  -383.096381

Showing only first 2 kpts
 Kpt  Band  Eigenvalues  Occupancy
  0   361      0.85986    1.23729
  0   362      0.86592    1.20850
  0   363      0.89416    1.07030
  0   364      0.90058    1.03829

  1   361      0.83844    1.33549
  1   362      0.84324    1.31402
  1   363      0.86019    1.23576
  1   364      0.87655    1.15714


Fermi level: 0.90824

No gap
No difference between direct/indirect transitions
Timing:                              incl.     excl.
-----------------------------------------------------------
Basic WFS set positions:             0.000     0.000   0.0% |
Basis functions set positions:       0.179     0.179   0.0% |
LCAO WFS Initialize:                 0.427     0.108   0.0% |
 Hamiltonian:                        0.319     0.000   0.0% |
  Atomic:                            0.162     0.002   0.0% |
   XC Correction:                    0.160     0.160   0.0% |
  Calculate atomic Hamiltonians:     0.027     0.027   0.0% |
  Communicate:                       0.000     0.000   0.0% |
  Hartree integrate/restrict:        0.006     0.006   0.0% |
  Initialize Hamiltonian:            0.000     0.000   0.0% |
  Poisson:                           0.076     0.006   0.0% |
   Communicate from 1D:              0.008     0.008   0.0% |
   Communicate from 2D:              0.006     0.006   0.0% |
   Communicate to 1D:                0.010     0.010   0.0% |
   Communicate to 2D:                0.011     0.011   0.0% |
   FFT 1D:                           0.008     0.008   0.0% |
   FFT 2D:                           0.028     0.028   0.0% |
  XC 3D grid:                        0.046     0.046   0.0% |
  vbar:                              0.003     0.003   0.0% |
P tci:                               5.193     5.193   0.1% |
SCF-cycle:                        8133.900     0.407   0.0% |
 Density:                         6226.706     0.001   0.0% |
  Atomic density matrices:           1.717     1.717   0.0% |
  Mix:                              10.125    10.125   0.1% |
  Multipole moments:                 0.026     0.026   0.0% |
  Normalize:                         0.011     0.011   0.0% |
  Pseudo density:                 6214.826     0.037   0.0% |
   Calculate density matrix:        14.117    14.117   0.2% |
   Construct density:             6200.671  6200.671  76.1% |-----------------------------|
   Symmetrize density:               0.001     0.001   0.0% |
 Hamiltonian:                       30.196     0.004   0.0% |
  Atomic:                           14.450     0.160   0.0% |
   XC Correction:                   14.291    14.291   0.2% |
  Calculate atomic Hamiltonians:     2.355     2.355   0.0% |
  Communicate:                       0.000     0.000   0.0% |
  Hartree integrate/restrict:        0.531     0.531   0.0% |
  Poisson:                           6.477     0.508   0.0% |
   Communicate from 1D:              0.705     0.705   0.0% |
   Communicate from 2D:              0.549     0.549   0.0% |
   Communicate to 1D:                0.630     0.630   0.0% |
   Communicate to 2D:                0.877     0.877   0.0% |
   FFT 1D:                           0.723     0.723   0.0% |
   FFT 2D:                           2.486     2.486   0.0% |
  XC 3D grid:                        5.462     5.462   0.1% |
  vbar:                              0.917     0.917   0.0% |
 LCAO eigensolver:                1876.590     3.204   0.0% |
  Calculate projections:            76.304    76.304   0.9% |
  DenseAtomicCorrection:           326.299   326.299   4.0% |-|
  Distribute overlap matrix:         6.674     6.674   0.1% |
  Orbital Layouts:                 468.373   468.373   5.7% |-|
  Potential matrix:                946.504   946.504  11.6% |----|
  Sum over cells:                   49.234    49.234   0.6% |
ST tci:                              1.929     1.929   0.0% |
Set symmetry:                        0.000     0.000   0.0% |
TCI: Evaluate splines:               0.558     0.558   0.0% |
mktci:                               0.025     0.025   0.0% |
Other:                               5.795     5.795   0.1% |
-----------------------------------------------------------
Total:                                      8148.007 100.0%

Memory usage: 4.49 GiB
Date: Sun Feb 22 04:52:54 2026
