
  ___ ___ ___ _ _ _  
 |   |   |_  | | | | 
 | | | | | . | | | | 
 |__ |  _|___|_____|  25.7.0
 |___|_|             

User:   mikei@Z790-AORUS-ELITE-AX
Date:   Sun Mar  1 14:25:19 2026
Arch:   x86_64
Pid:    89048
CWD:    /home/mikei/Dokumenty/code/cemea/ocx
Python: 3.10.16
gpaw:   /home/mikei/.pyenv/versions/cemea-env/lib/python3.10/site-packages/gpaw
_gpaw:  /home/mikei/.pyenv/versions/cemea-env/lib/python3.10/site-packages/
        _gpaw.cpython-310-x86_64-linux-gnu.so
ase:    /home/mikei/.pyenv/versions/cemea-env/lib/python3.10/site-packages/ase (version 3.27.0)
numpy:  /home/mikei/.pyenv/versions/cemea-env/lib/python3.10/site-packages/numpy (version 2.2.6)
scipy:  /home/mikei/.pyenv/versions/cemea-env/lib/python3.10/site-packages/scipy (version 1.15.3)
libxc:  2.x.y
units:  Angstrom and eV
cores: 1
OpenMP: False
OMP_NUM_THREADS: 1

Input parameters:
  basis: dzp
  convergence: {density: 0.0001,
                eigenstates: 1e-05,
                energy: 1e-05}
  kpts: [4 4 1]
  mode: lcao

System changes: positions, numbers, cell, pbc, initial_charges, initial_magmoms 

Initialize ...

species:
  Ni:
    name: Nickel
    id: 1802175e8de9ea26d9f4394ec1a7d564
    Z: 28.0
    valence: 16
    core: 12
    charge: 0.0
    file: /home/mikei/.pyenv/versions/cemea-env/lib/python3.10/site-packages/gpaw_data/setups/Ni.LDA.gz
    compensation charges: {type: gauss,
                           rc: 0.36,
                           lmax: 2}
    cutoffs: {filter: 2.14,
              core: 1.98}
    projectors:
      #              energy  rcut
      - 4s(2.00)    -5.858   1.164
      - 3p(6.00)   -71.266   1.207
      - 4p(0.00)    -1.338   1.207
      - 3d(8.00)    -9.141   1.138
      -  s          21.353   1.164
      -  d          18.071   1.138
  
    # LCAO basis set for Ni:
    #   Name: dzp
    #   File: /home/mikei/.pyenv/versions/cemea-env/lib/python3.10/site-packages/gpaw_data/setups/Ni.dzp.basis.gz
    #   Number of radial functions: 9
    #   Number of spherical harmonics: 27
    #     l=0, rc=8.5156 Bohr: 4s-sz confined orbital
    #     l=1, rc=2.9375 Bohr: 3p-sz confined orbital
    #     l=1, rc=12.4062 Bohr: 4p-sz confined orbital
    #     l=2, rc=4.6875 Bohr: 3d-sz confined orbital
    #     l=0, rc=4.9688 Bohr: 4s-dz split-valence wave
    #     l=1, rc=2.0781 Bohr: 3p-dz split-valence wave
    #     l=1, rc=7.5469 Bohr: 4p-dz split-valence wave
    #     l=2, rc=2.9375 Bohr: 3d-dz split-valence wave
    #     l=1, rc=8.5156 Bohr: p-type Gaussian polarization
    #   Number of RI-basis functions 0

  Mo:
    name: Molybdenum
    id: ac24daaf086600a00ce6d19a74574df1
    Z: 42.0
    valence: 14
    core: 28
    charge: 0.0
    file: /home/mikei/.pyenv/versions/cemea-env/lib/python3.10/site-packages/gpaw_data/setups/Mo.LDA.gz
    compensation charges: {type: gauss,
                           rc: 0.38,
                           lmax: 2}
    cutoffs: {filter: 2.16,
              core: 1.42}
    projectors:
      #              energy  rcut
      - 4s(2.00)   -64.384   1.238
      - 5s(1.00)    -4.319   1.238
      - 4p(6.00)   -38.595   1.296
      - 5p(0.00)    -1.161   1.296
      - 4d(5.00)    -3.933   1.296
      -  d          23.278   1.296
  
    # LCAO basis set for Mo:
    #   Name: dzp
    #   File: /home/mikei/.pyenv/versions/cemea-env/lib/python3.10/site-packages/gpaw_data/setups/Mo.dzp.basis.gz
    #   Number of radial functions: 11
    #   Number of spherical harmonics: 29
    #     l=0, rc=3.5469 Bohr: 4s-sz confined orbital
    #     l=0, rc=10.0469 Bohr: 5s-sz confined orbital
    #     l=1, rc=4.0781 Bohr: 4p-sz confined orbital
    #     l=1, rc=14.0938 Bohr: 5p-sz confined orbital
    #     l=2, rc=7.2031 Bohr: 4d-sz confined orbital
    #     l=0, rc=2.1250 Bohr: 4s-dz split-valence wave
    #     l=0, rc=6.1250 Bohr: 5s-dz split-valence wave
    #     l=1, rc=2.5469 Bohr: 4p-dz split-valence wave
    #     l=1, rc=8.7656 Bohr: 5p-dz split-valence wave
    #     l=2, rc=4.2344 Bohr: 4d-dz split-valence wave
    #     l=1, rc=10.0469 Bohr: p-type Gaussian polarization
    #   Number of RI-basis functions 0

  B:
    name: Boron
    id: 02e2e0e88ef95f403158802f6b0f4231
    Z: 5.0
    valence: 3
    core: 2
    charge: 0.0
    file: /home/mikei/.pyenv/versions/cemea-env/lib/python3.10/site-packages/gpaw_data/setups/B.LDA.gz
    compensation charges: {type: gauss,
                           rc: 0.20,
                           lmax: 2}
    cutoffs: {filter: 1.14,
              core: 1.42}
    projectors:
      #              energy  rcut
      - 2s(2.00)    -9.383   0.635
      - 2p(1.00)    -3.714   0.635
      -  s          17.828   0.635
      -  p          23.498   0.635
      -  d           0.000   0.635
  
    # LCAO basis set for B:
    #   Name: dzp
    #   File: /home/mikei/.pyenv/versions/cemea-env/lib/python3.10/site-packages/gpaw_data/setups/B.dzp.basis.gz
    #   Number of radial functions: 5
    #   Number of spherical harmonics: 13
    #     l=0, rc=6.6719 Bohr: 2s-sz confined orbital
    #     l=1, rc=8.2188 Bohr: 2p-sz confined orbital
    #     l=0, rc=3.7500 Bohr: 2s-dz split-valence wave
    #     l=1, rc=4.6094 Bohr: 2p-dz split-valence wave
    #     l=2, rc=8.2188 Bohr: d-type Gaussian polarization
    #   Number of RI-basis functions 0

  Ir:
    name: Iridium
    id: ca472fc5a58bba06e8299391bae24b72
    Z: 77.0
    valence: 15
    core: 62
    charge: 0.0
    file: /home/mikei/.pyenv/versions/cemea-env/lib/python3.10/site-packages/gpaw_data/setups/Ir.LDA.gz
    compensation charges: {type: gauss,
                           rc: 0.40,
                           lmax: 2}
    cutoffs: {filter: 2.40,
              core: 2.36}
    projectors:
      #              energy  rcut
      - 6s(2.00)    -6.559   1.296
      - 5p(6.00)   -54.966   1.328
      - 6p(0.00)    -1.355   1.328
      - 5d(7.00)    -7.377   1.286
      -  s          20.652   1.296
      -  d          19.835   1.286
  
    # LCAO basis set for Ir:
    #   Name: dzp
    #   File: /home/mikei/.pyenv/versions/cemea-env/lib/python3.10/site-packages/gpaw_data/setups/Ir.dzp.basis.gz
    #   Number of radial functions: 9
    #   Number of spherical harmonics: 27
    #     l=0, rc=8.4062 Bohr: 6s-sz confined orbital
    #     l=1, rc=3.6406 Bohr: 5p-sz confined orbital
    #     l=1, rc=12.7031 Bohr: 6p-sz confined orbital
    #     l=2, rc=6.0469 Bohr: 5d-sz confined orbital
    #     l=0, rc=4.9844 Bohr: 6s-dz split-valence wave
    #     l=1, rc=2.4062 Bohr: 5p-dz split-valence wave
    #     l=1, rc=7.7969 Bohr: 6p-dz split-valence wave
    #     l=2, rc=3.5938 Bohr: 5d-dz split-valence wave
    #     l=1, rc=8.4062 Bohr: p-type Gaussian polarization
    #   Number of RI-basis functions 0

Reference energy: -2897975.636525  # eV

Spin-paired calculation

Convergence criteria:
 Maximum [total energy] change in last 3 cyles: 1e-05 eV / valence electron
 Maximum integral of absolute [dens]ity change: 0.0001 electrons / valence electron
 Maximum integral of absolute [eigenst]ate change: 1e-05 eV^2 / valence electron
 Maximum number of scf [iter]ations: 333
 (Square brackets indicate name in SCF output, whereas a 'c' in
 the SCF output indicates the quantity has converged.)

Symmetries present (total): 1

  ( 1  0  0)
  ( 0  1  0)
  ( 0  0  1)

16 k-points: 4 x 4 x 1 Monkhorst-Pack grid
8 k-points in the irreducible part of the Brillouin zone
       k-points in crystal coordinates                weights
   0:     0.12500000   -0.37500000    0.00000000          2/16
   1:     0.12500000   -0.12500000    0.00000000          2/16
   2:     0.12500000    0.12500000    0.00000000          2/16
   3:     0.12500000    0.37500000    0.00000000          2/16
   4:     0.37500000   -0.37500000    0.00000000          2/16
   5:     0.37500000   -0.12500000    0.00000000          2/16
   6:     0.37500000    0.12500000    0.00000000          2/16
   7:     0.37500000    0.37500000    0.00000000          2/16

Wave functions: LCAO
  Diagonalizer: Serial LAPACK
  Atomic Correction: dense with blas
  Data-type: complex
 

Occupation numbers: Fermi-Dirac:
  width: 0.1000  # eV
 

Eigensolver
   LCAO using direct dense diagonalizer 

Densities:
  Coarse grid: 36*36*124 grid
  Fine grid: 72*72*248 grid
  Total Charge: 0.000000 

Density mixing:
  Method: separate
  Backend: pulay
  Linear mixing parameter: 0.05
  old densities: 5
  Damping of long wavelength oscillations: 50 

Hamiltonian:
  XC and Coulomb potentials evaluated on a 72*72*248 grid
  Using the LDA Exchange-Correlation functional
  Interpolation: tri-quintic (5. degree polynomial)
  Poisson solver: FastPoissonSolver using
    Stencil: 6*3+1=19 point O(h^6) finite-difference Laplacian
    FFT axes: [np.int64(0), np.int64(1), np.int64(2)]
    FST axes: []
 

Memory estimate:
  Process memory now: 4818.40 MiB
  Calculator: 923.51 MiB
    Density: 210.12 MiB
      Arrays: 31.88 MiB
      Localized functions: 165.98 MiB
      Mixer: 12.26 MiB
    Hamiltonian: 33.42 MiB
      Arrays: 20.84 MiB
      XC: 0.00 MiB
      Poisson: 0.00 MiB
      vbar: 12.57 MiB
    Wavefunctions: 679.97 MiB
      C [qnM]: 59.61 MiB
      S, T [2 x qmm]: 348.06 MiB
      P [aqMi]: 7.36 MiB
      BasisFunctions: 264.95 MiB
      Eigensolver: 0.00 MiB

Total number of cores used: 1

Number of atoms: 46
Number of atomic orbitals: 1194
Number of bands in calculation: 409
Number of valence electrons: 674
Bands to converge: occupied

... initialized

Initializing position-dependent things.

Density initialized from atomic densities
      .-----------------.  
     /|                 |  
    / |                 |  
   /  |                 |  
  /   |                 |  
 *    |                 |  
 |    |                 |  
 |    |                 |  
 |    |                 |  
 |    |                 |  
 |    |                 |  
 |    |Ir    Ir         |  
 |    | B      B        |  
 |    |                 |  
 |    B      B          |  
 | Mo |   Mo            |  
 |  Ni|   Ni    Ni      |  
 Mo   | Mo              |  
 | Ni | NNi   NNi   Ni  |  
 |    Ni    Ni    Ni    |  
 Ni   |Ni    Ni         |  
 |  NNi   NNi   NNi     |  
 | Ni | NNi   NNi   Ni  |  
 |    |                 |  
 Ni   NNi   NNi   Ni    |  
 |   Ni    Ni    Ni     |  
 |    |                 |  
 |    |                 |  
 |    |                 |  
 |    |                 |  
 |    |                 |  
 |    .-----------------.  
 |   /                 /   
 |  /                 /    
 | /                 /     
 |/                 /      
 *-----------------*       

Atomic positions and initial magnetic moments

Positions:
   0 Ni     1.244508    1.244508    8.000000    ( 0.0000,  0.0000,  0.0000)
   1 Ni     3.733524    1.244508    8.000000    ( 0.0000,  0.0000,  0.0000)
   2 Ni     6.222540    1.244508    8.000000    ( 0.0000,  0.0000,  0.0000)
   3 Ni     1.244508    3.733524    8.000000    ( 0.0000,  0.0000,  0.0000)
   4 Ni     3.733524    3.733524    8.000000    ( 0.0000,  0.0000,  0.0000)
   5 Ni     6.222540    3.733524    8.000000    ( 0.0000,  0.0000,  0.0000)
   6 Ni     1.244508    6.222540    8.000000    ( 0.0000,  0.0000,  0.0000)
   7 Ni     3.733524    6.222540    8.000000    ( 0.0000,  0.0000,  0.0000)
   8 Ni     6.222540    6.222540    8.000000    ( 0.0000,  0.0000,  0.0000)
   9 Ni     0.000000    0.000000    9.760000    ( 0.0000,  0.0000,  0.0000)
  10 Ni     2.489016    0.000000    9.760000    ( 0.0000,  0.0000,  0.0000)
  11 Ni     4.978032    0.000000    9.760000    ( 0.0000,  0.0000,  0.0000)
  12 Ni     0.000000    2.489016    9.760000    ( 0.0000,  0.0000,  0.0000)
  13 Ni     2.489016    2.489016    9.760000    ( 0.0000,  0.0000,  0.0000)
  14 Ni     4.978032    2.489016    9.760000    ( 0.0000,  0.0000,  0.0000)
  15 Ni     0.000000    4.978032    9.760000    ( 0.0000,  0.0000,  0.0000)
  16 Ni     2.489016    4.978032    9.760000    ( 0.0000,  0.0000,  0.0000)
  17 Ni     4.978032    4.978032    9.760000    ( 0.0000,  0.0000,  0.0000)
  18 Ni     1.244508    1.244508   11.520000    ( 0.0000,  0.0000,  0.0000)
  19 Ni     3.733524    1.244508   11.520000    ( 0.0000,  0.0000,  0.0000)
  20 Ni     6.222540    1.244508   11.520000    ( 0.0000,  0.0000,  0.0000)
  21 Ni     1.244508    3.733524   11.520000    ( 0.0000,  0.0000,  0.0000)
  22 Ni     3.733524    3.733524   11.520000    ( 0.0000,  0.0000,  0.0000)
  23 Ni     6.222540    3.733524   11.520000    ( 0.0000,  0.0000,  0.0000)
  24 Ni     1.244508    6.222540   11.520000    ( 0.0000,  0.0000,  0.0000)
  25 Ni     3.733524    6.222540   11.520000    ( 0.0000,  0.0000,  0.0000)
  26 Ni     6.222540    6.222540   11.520000    ( 0.0000,  0.0000,  0.0000)
  27 Ni     0.000000    0.000000   13.280000    ( 0.0000,  0.0000,  0.0000)
  28 Ni     2.489016    0.000000   13.280000    ( 0.0000,  0.0000,  0.0000)
  29 Ni     4.978032    0.000000   13.280000    ( 0.0000,  0.0000,  0.0000)
  30 Ni     0.000000    2.489016   13.280000    ( 0.0000,  0.0000,  0.0000)
  31 Ni     2.489016    2.489016   13.280000    ( 0.0000,  0.0000,  0.0000)
  32 Ni     4.978032    2.489016   13.280000    ( 0.0000,  0.0000,  0.0000)
  33 Ni     0.000000    4.978032   13.280000    ( 0.0000,  0.0000,  0.0000)
  34 Ni     2.489016    4.978032   13.280000    ( 0.0000,  0.0000,  0.0000)
  35 Ni     4.978032    4.978032   13.280000    ( 0.0000,  0.0000,  0.0000)
  36 Mo     0.000000    0.000000   15.480000    ( 0.0000,  0.0000,  0.0000)
  37 B      1.525000    1.525000   17.005000    ( 0.0000,  0.0000,  0.0000)
  38 Mo     0.000000    3.050000   15.480000    ( 0.0000,  0.0000,  0.0000)
  39 B      1.525000    4.575000   17.005000    ( 0.0000,  0.0000,  0.0000)
  40 Mo     3.050000    0.000000   15.480000    ( 0.0000,  0.0000,  0.0000)
  41 B      4.575000    1.525000   17.005000    ( 0.0000,  0.0000,  0.0000)
  42 Mo     3.050000    3.050000   15.480000    ( 0.0000,  0.0000,  0.0000)
  43 B      4.575000    4.575000   17.005000    ( 0.0000,  0.0000,  0.0000)
  44 Ir     1.761494    2.961494   18.805000    ( 0.0000,  0.0000,  0.0000)
  45 Ir     4.161494    2.961494   18.805000    ( 0.0000,  0.0000,  0.0000)

Unit cell:
           periodic     x           y           z      points  spacing
  1. axis:    yes    7.467048    0.000000    0.000000    36     0.2074
  2. axis:    yes    0.000000    7.467048    0.000000    36     0.2074
  3. axis:    yes    0.000000    0.000000   25.005000   124     0.2017

  Lengths:   7.467048   7.467048  25.005000
  Angles:   90.000000  90.000000  90.000000

Effective grid spacing dv^(1/3) = 0.2055

     iter     time        total  log10-change:
                         energy   eigst   dens
iter:   1 14:27:18  -856.769238        c
iter:   2 14:29:29 -1680.062869        c -1.02
iter:   3 14:32:01  -684.834771        c -0.61
iter:   4 14:34:12  -467.727217        c -1.06
iter:   5 14:36:04  -407.762690        c -1.32
iter:   6 14:38:04  -417.451063        c -1.45
iter:   7 14:40:05  -351.597862        c -1.36
iter:   8 14:43:19  -350.028299        c -1.56
iter:   9 14:45:41  -403.990006        c -1.60
iter:  10 14:47:24  -355.442594        c -1.49
iter:  11 14:50:00  -354.303584        c -1.56
iter:  12 14:52:13  -343.333607        c -1.63
iter:  13 14:54:35  -343.643202        c -1.78
iter:  14 14:56:59  -359.186337        c -1.89
iter:  15 14:59:02  -343.747059        c -1.73
iter:  16 15:01:14  -343.373660        c -1.89
iter:  17 15:03:04  -344.330463        c -1.88
iter:  18 15:05:57  -338.580753        c -1.75
iter:  19 15:08:26  -341.628331        c -2.11
iter:  20 15:10:09  -339.458571        c -1.96
iter:  21 15:11:57  -340.373970        c -2.20
iter:  22 15:14:21  -343.245628        c -2.03
iter:  23 15:16:16  -341.928373        c -1.98
iter:  24 15:18:05  -339.746516        c -2.08
iter:  25 15:19:51  -339.450603        c -2.27
iter:  26 15:21:42  -338.878912        c -2.15
iter:  27 15:23:53  -339.094180        c -2.39
iter:  28 15:26:08  -338.355056        c -2.31
iter:  29 15:28:12  -338.482467        c -2.75
iter:  30 15:30:45  -338.386207        c -2.61
iter:  31 15:32:21  -338.373204        c -2.75
iter:  32 15:34:37  -338.376459        c -2.76
iter:  33 15:37:07  -338.335276        c -2.81
iter:  34 15:39:14  -338.343493        c -2.92
iter:  35 15:41:23  -338.317594        c -2.80
iter:  36 15:43:30  -338.346379        c -2.99
iter:  37 15:45:03  -338.324900        c -2.90
iter:  38 15:47:36  -338.309423        c -3.01
iter:  39 15:49:23  -338.290797        c -3.11
iter:  40 15:51:18  -338.297693        c -3.19
iter:  41 15:53:05  -338.296452        c -3.21
iter:  42 15:55:36  -338.296521c       c -3.21
iter:  43 15:58:03  -338.291350c       c -3.24
iter:  44 16:00:08  -338.300002        c -3.17
iter:  45 16:02:15  -338.296042        c -3.14
iter:  46 16:04:12  -338.293328c       c -3.24
iter:  47 16:06:21  -338.291271c       c -3.31
iter:  48 16:07:58  -338.299427        c -3.37
iter:  49 16:10:25  -338.293249        c -3.18
iter:  50 16:12:15  -338.295030c       c -3.36
iter:  51 16:15:33  -338.292113c       c -3.36
iter:  52 16:18:29  -338.287632        c -3.33
iter:  53 16:20:46  -338.294509        c -3.30
iter:  54 16:23:05  -338.288690        c -3.30
iter:  55 16:25:07  -338.287044        c -3.54
iter:  56 16:27:20  -338.286376c       c -3.61
iter:  57 16:29:17  -338.289155c       c -3.61
iter:  58 16:31:12  -338.291798c       c -3.44
iter:  59 16:32:55  -338.300577        c -3.47
iter:  60 16:35:12  -338.286629        c -3.27
iter:  61 16:37:06  -338.287648        c -3.67
iter:  62 16:39:06  -338.287629c       c -3.71
iter:  63 16:41:19  -338.288380c       c -3.74
iter:  64 16:43:39  -338.285982c       c -3.75
iter:  65 16:45:58  -338.285498c       c -3.85
iter:  66 16:47:59  -338.285631c       c -3.76
iter:  67 16:50:45  -338.286265c       c -3.90
iter:  68 16:53:16  -338.286310c       c -3.89
iter:  69 16:55:36  -338.284244c       c -4.00c

Converged after 69 iterations.

Dipole moment: (-13.553142, -13.076627, 0.276411) |e|*Ang

Energy contributions relative to reference atoms: (reference = -2897975.636525)

Kinetic:        +68.608774
Potential:      -32.801619
External:        +0.000000
XC:            -370.581085
Entropy (-ST):   -3.617301
Local:           -1.701663
SIC:             +0.000000
--------------------------
Free energy:   -340.092894
Extrapolated:  -338.284244

Showing only first 2 kpts
 Kpt  Band  Eigenvalues  Occupancy
  0   335      0.09603    1.25656
  0   336      0.10951    1.19259
  0   337      0.12731    1.10559
  0   338      0.15228    0.98113

  1   335      0.09682    1.25287
  1   336      0.09950    1.24029
  1   337      0.10407    1.21861
  1   338      0.11483    1.16681


Fermi level: 0.14851

No gap
No difference between direct/indirect transitions
Timing:                              incl.     excl.
-----------------------------------------------------------
Basic WFS set positions:             0.000     0.000   0.0% |
Basis functions set positions:       0.169     0.169   0.0% |
LCAO WFS Initialize:                 0.398     0.084   0.0% |
 Hamiltonian:                        0.314     0.000   0.0% |
  Atomic:                            0.152     0.002   0.0% |
   XC Correction:                    0.150     0.150   0.0% |
  Calculate atomic Hamiltonians:     0.024     0.024   0.0% |
  Communicate:                       0.000     0.000   0.0% |
  Hartree integrate/restrict:        0.010     0.010   0.0% |
  Initialize Hamiltonian:            0.001     0.001   0.0% |
  Poisson:                           0.080     0.006   0.0% |
   Communicate from 1D:              0.008     0.008   0.0% |
   Communicate from 2D:              0.007     0.007   0.0% |
   Communicate to 1D:                0.009     0.009   0.0% |
   Communicate to 2D:                0.012     0.012   0.0% |
   FFT 1D:                           0.014     0.014   0.0% |
   FFT 2D:                           0.023     0.023   0.0% |
  XC 3D grid:                        0.043     0.043   0.0% |
  vbar:                              0.005     0.005   0.0% |
P tci:                               4.589     4.589   0.1% |
SCF-cycle:                        9004.765     0.246   0.0% |
 Density:                         4485.941     0.001   0.0% |
  Atomic density matrices:           1.179     1.179   0.0% |
  Mix:                               8.542     8.542   0.1% |
  Multipole moments:                 0.018     0.018   0.0% |
  Normalize:                         0.008     0.008   0.0% |
  Pseudo density:                 4476.193     0.030   0.0% |
   Calculate density matrix:        12.187    12.187   0.1% |
   Construct density:             4463.975  4463.975  49.5% |-------------------|
   Symmetrize density:               0.001     0.001   0.0% |
 Hamiltonian:                       22.954     0.003   0.0% |
  Atomic:                           10.305     0.121   0.0% |
   XC Correction:                   10.184    10.184   0.1% |
  Calculate atomic Hamiltonians:     1.637     1.637   0.0% |
  Communicate:                       0.000     0.000   0.0% |
  Hartree integrate/restrict:        0.689     0.689   0.0% |
  Poisson:                           5.137     0.399   0.0% |
   Communicate from 1D:              0.602     0.602   0.0% |
   Communicate from 2D:              0.503     0.503   0.0% |
   Communicate to 1D:                0.476     0.476   0.0% |
   Communicate to 2D:                0.690     0.690   0.0% |
   FFT 1D:                           0.955     0.955   0.0% |
   FFT 2D:                           1.512     1.512   0.0% |
  XC 3D grid:                        4.424     4.424   0.0% |
  vbar:                              0.758     0.758   0.0% |
 LCAO eigensolver:                4495.625     1.956   0.0% |
  Calculate projections:           113.806   113.806   1.3% ||
  DenseAtomicCorrection:           250.703   250.703   2.8% ||
  Distribute overlap matrix:         3.254     3.254   0.0% |
  Orbital Layouts:                3340.656  3340.656  37.0% |--------------|
  Potential matrix:                703.525   703.525   7.8% |--|
  Sum over cells:                   81.725    81.725   0.9% |
ST tci:                              1.757     1.757   0.0% |
Set symmetry:                        0.000     0.000   0.0% |
TCI: Evaluate splines:               0.609     0.609   0.0% |
mktci:                               0.023     0.023   0.0% |
Other:                               4.475     4.475   0.0% |
-----------------------------------------------------------
Total:                                      9016.786 100.0%

Memory usage: 4.71 GiB
Date: Sun Mar  1 16:55:36 2026
