
  ___ ___ ___ _ _ _  
 |   |   |_  | | | | 
 | | | | | . | | | | 
 |__ |  _|___|_____|  25.7.0
 |___|_|             

User:   mikei@Z790-AORUS-ELITE-AX
Date:   Sun Mar  1 16:55:36 2026
Arch:   x86_64
Pid:    89048
CWD:    /home/mikei/Dokumenty/code/cemea/ocx
Python: 3.10.16
gpaw:   /home/mikei/.pyenv/versions/cemea-env/lib/python3.10/site-packages/gpaw
_gpaw:  /home/mikei/.pyenv/versions/cemea-env/lib/python3.10/site-packages/
        _gpaw.cpython-310-x86_64-linux-gnu.so
ase:    /home/mikei/.pyenv/versions/cemea-env/lib/python3.10/site-packages/ase (version 3.27.0)
numpy:  /home/mikei/.pyenv/versions/cemea-env/lib/python3.10/site-packages/numpy (version 2.2.6)
scipy:  /home/mikei/.pyenv/versions/cemea-env/lib/python3.10/site-packages/scipy (version 1.15.3)
libxc:  2.x.y
units:  Angstrom and eV
cores: 1
OpenMP: False
OMP_NUM_THREADS: 1

Input parameters:
  basis: dzp
  convergence: {density: 0.0001,
                eigenstates: 1e-05,
                energy: 1e-05}
  kpts: [4 4 1]
  mode: lcao

System changes: positions, numbers, cell, pbc, initial_charges, initial_magmoms 

Initialize ...

species:
  Ni:
    name: Nickel
    id: 1802175e8de9ea26d9f4394ec1a7d564
    Z: 28.0
    valence: 16
    core: 12
    charge: 0.0
    file: /home/mikei/.pyenv/versions/cemea-env/lib/python3.10/site-packages/gpaw_data/setups/Ni.LDA.gz
    compensation charges: {type: gauss,
                           rc: 0.36,
                           lmax: 2}
    cutoffs: {filter: 2.14,
              core: 1.98}
    projectors:
      #              energy  rcut
      - 4s(2.00)    -5.858   1.164
      - 3p(6.00)   -71.266   1.207
      - 4p(0.00)    -1.338   1.207
      - 3d(8.00)    -9.141   1.138
      -  s          21.353   1.164
      -  d          18.071   1.138
  
    # LCAO basis set for Ni:
    #   Name: dzp
    #   File: /home/mikei/.pyenv/versions/cemea-env/lib/python3.10/site-packages/gpaw_data/setups/Ni.dzp.basis.gz
    #   Number of radial functions: 9
    #   Number of spherical harmonics: 27
    #     l=0, rc=8.5156 Bohr: 4s-sz confined orbital
    #     l=1, rc=2.9375 Bohr: 3p-sz confined orbital
    #     l=1, rc=12.4062 Bohr: 4p-sz confined orbital
    #     l=2, rc=4.6875 Bohr: 3d-sz confined orbital
    #     l=0, rc=4.9688 Bohr: 4s-dz split-valence wave
    #     l=1, rc=2.0781 Bohr: 3p-dz split-valence wave
    #     l=1, rc=7.5469 Bohr: 4p-dz split-valence wave
    #     l=2, rc=2.9375 Bohr: 3d-dz split-valence wave
    #     l=1, rc=8.5156 Bohr: p-type Gaussian polarization
    #   Number of RI-basis functions 0

  Mo:
    name: Molybdenum
    id: ac24daaf086600a00ce6d19a74574df1
    Z: 42.0
    valence: 14
    core: 28
    charge: 0.0
    file: /home/mikei/.pyenv/versions/cemea-env/lib/python3.10/site-packages/gpaw_data/setups/Mo.LDA.gz
    compensation charges: {type: gauss,
                           rc: 0.38,
                           lmax: 2}
    cutoffs: {filter: 2.16,
              core: 1.42}
    projectors:
      #              energy  rcut
      - 4s(2.00)   -64.384   1.238
      - 5s(1.00)    -4.319   1.238
      - 4p(6.00)   -38.595   1.296
      - 5p(0.00)    -1.161   1.296
      - 4d(5.00)    -3.933   1.296
      -  d          23.278   1.296
  
    # LCAO basis set for Mo:
    #   Name: dzp
    #   File: /home/mikei/.pyenv/versions/cemea-env/lib/python3.10/site-packages/gpaw_data/setups/Mo.dzp.basis.gz
    #   Number of radial functions: 11
    #   Number of spherical harmonics: 29
    #     l=0, rc=3.5469 Bohr: 4s-sz confined orbital
    #     l=0, rc=10.0469 Bohr: 5s-sz confined orbital
    #     l=1, rc=4.0781 Bohr: 4p-sz confined orbital
    #     l=1, rc=14.0938 Bohr: 5p-sz confined orbital
    #     l=2, rc=7.2031 Bohr: 4d-sz confined orbital
    #     l=0, rc=2.1250 Bohr: 4s-dz split-valence wave
    #     l=0, rc=6.1250 Bohr: 5s-dz split-valence wave
    #     l=1, rc=2.5469 Bohr: 4p-dz split-valence wave
    #     l=1, rc=8.7656 Bohr: 5p-dz split-valence wave
    #     l=2, rc=4.2344 Bohr: 4d-dz split-valence wave
    #     l=1, rc=10.0469 Bohr: p-type Gaussian polarization
    #   Number of RI-basis functions 0

  B:
    name: Boron
    id: 02e2e0e88ef95f403158802f6b0f4231
    Z: 5.0
    valence: 3
    core: 2
    charge: 0.0
    file: /home/mikei/.pyenv/versions/cemea-env/lib/python3.10/site-packages/gpaw_data/setups/B.LDA.gz
    compensation charges: {type: gauss,
                           rc: 0.20,
                           lmax: 2}
    cutoffs: {filter: 1.14,
              core: 1.42}
    projectors:
      #              energy  rcut
      - 2s(2.00)    -9.383   0.635
      - 2p(1.00)    -3.714   0.635
      -  s          17.828   0.635
      -  p          23.498   0.635
      -  d           0.000   0.635
  
    # LCAO basis set for B:
    #   Name: dzp
    #   File: /home/mikei/.pyenv/versions/cemea-env/lib/python3.10/site-packages/gpaw_data/setups/B.dzp.basis.gz
    #   Number of radial functions: 5
    #   Number of spherical harmonics: 13
    #     l=0, rc=6.6719 Bohr: 2s-sz confined orbital
    #     l=1, rc=8.2188 Bohr: 2p-sz confined orbital
    #     l=0, rc=3.7500 Bohr: 2s-dz split-valence wave
    #     l=1, rc=4.6094 Bohr: 2p-dz split-valence wave
    #     l=2, rc=8.2188 Bohr: d-type Gaussian polarization
    #   Number of RI-basis functions 0

  Ir:
    name: Iridium
    id: ca472fc5a58bba06e8299391bae24b72
    Z: 77.0
    valence: 15
    core: 62
    charge: 0.0
    file: /home/mikei/.pyenv/versions/cemea-env/lib/python3.10/site-packages/gpaw_data/setups/Ir.LDA.gz
    compensation charges: {type: gauss,
                           rc: 0.40,
                           lmax: 2}
    cutoffs: {filter: 2.40,
              core: 2.36}
    projectors:
      #              energy  rcut
      - 6s(2.00)    -6.559   1.296
      - 5p(6.00)   -54.966   1.328
      - 6p(0.00)    -1.355   1.328
      - 5d(7.00)    -7.377   1.286
      -  s          20.652   1.296
      -  d          19.835   1.286
  
    # LCAO basis set for Ir:
    #   Name: dzp
    #   File: /home/mikei/.pyenv/versions/cemea-env/lib/python3.10/site-packages/gpaw_data/setups/Ir.dzp.basis.gz
    #   Number of radial functions: 9
    #   Number of spherical harmonics: 27
    #     l=0, rc=8.4062 Bohr: 6s-sz confined orbital
    #     l=1, rc=3.6406 Bohr: 5p-sz confined orbital
    #     l=1, rc=12.7031 Bohr: 6p-sz confined orbital
    #     l=2, rc=6.0469 Bohr: 5d-sz confined orbital
    #     l=0, rc=4.9844 Bohr: 6s-dz split-valence wave
    #     l=1, rc=2.4062 Bohr: 5p-dz split-valence wave
    #     l=1, rc=7.7969 Bohr: 6p-dz split-valence wave
    #     l=2, rc=3.5938 Bohr: 5d-dz split-valence wave
    #     l=1, rc=8.4062 Bohr: p-type Gaussian polarization
    #   Number of RI-basis functions 0

  H:
    name: Hydrogen
    id: 4766778ce56282eaa64abeb28b7c1de3
    Z: 1.0
    valence: 1
    core: 0
    charge: 0.0
    file: /home/mikei/.pyenv/versions/cemea-env/lib/python3.10/site-packages/gpaw_data/setups/H.LDA.gz
    compensation charges: {type: gauss,
                           rc: 0.15,
                           lmax: 2}
    cutoffs: {filter: 0.85,
              core: 0.53}
    projectors:
      #              energy  rcut
      - 1s(1.00)    -6.353   0.476
      -  s          20.858   0.476
      -  p           0.000   0.476
  
    # LCAO basis set for H:
    #   Name: dzp
    #   File: /home/mikei/.pyenv/versions/cemea-env/lib/python3.10/site-packages/gpaw_data/setups/H.dzp.basis.gz
    #   Number of radial functions: 3
    #   Number of spherical harmonics: 5
    #     l=0, rc=6.4219 Bohr: 1s-sz confined orbital
    #     l=0, rc=3.6094 Bohr: 1s-dz split-valence wave
    #     l=1, rc=6.4219 Bohr: p-type Gaussian polarization
    #   Number of RI-basis functions 0

Reference energy: -2897987.765483  # eV

Spin-paired calculation

Convergence criteria:
 Maximum [total energy] change in last 3 cyles: 1e-05 eV / valence electron
 Maximum integral of absolute [dens]ity change: 0.0001 electrons / valence electron
 Maximum integral of absolute [eigenst]ate change: 1e-05 eV^2 / valence electron
 Maximum number of scf [iter]ations: 333
 (Square brackets indicate name in SCF output, whereas a 'c' in
 the SCF output indicates the quantity has converged.)

Symmetries present (total): 1

  ( 1  0  0)
  ( 0  1  0)
  ( 0  0  1)

16 k-points: 4 x 4 x 1 Monkhorst-Pack grid
8 k-points in the irreducible part of the Brillouin zone
       k-points in crystal coordinates                weights
   0:     0.12500000   -0.37500000    0.00000000          2/16
   1:     0.12500000   -0.12500000    0.00000000          2/16
   2:     0.12500000    0.12500000    0.00000000          2/16
   3:     0.12500000    0.37500000    0.00000000          2/16
   4:     0.37500000   -0.37500000    0.00000000          2/16
   5:     0.37500000   -0.12500000    0.00000000          2/16
   6:     0.37500000    0.12500000    0.00000000          2/16
   7:     0.37500000    0.37500000    0.00000000          2/16

Wave functions: LCAO
  Diagonalizer: Serial LAPACK
  Atomic Correction: dense with blas
  Data-type: complex
 

Occupation numbers: Fermi-Dirac:
  width: 0.1000  # eV
 

Eigensolver
   LCAO using direct dense diagonalizer 

Densities:
  Coarse grid: 36*36*124 grid
  Fine grid: 72*72*248 grid
  Total Charge: 0.000000 

Density mixing:
  Method: separate
  Backend: pulay
  Linear mixing parameter: 0.05
  old densities: 5
  Damping of long wavelength oscillations: 50 

Hamiltonian:
  XC and Coulomb potentials evaluated on a 72*72*248 grid
  Using the LDA Exchange-Correlation functional
  Interpolation: tri-quintic (5. degree polynomial)
  Poisson solver: FastPoissonSolver using
    Stencil: 6*3+1=19 point O(h^6) finite-difference Laplacian
    FFT axes: [np.int64(0), np.int64(1), np.int64(2)]
    FST axes: []
 

Memory estimate:
  Process memory now: 4818.40 MiB
  Calculator: 927.61 MiB
    Density: 210.35 MiB
      Arrays: 31.88 MiB
      Localized functions: 166.21 MiB
      Mixer: 12.26 MiB
    Hamiltonian: 33.43 MiB
      Arrays: 20.84 MiB
      XC: 0.00 MiB
      Poisson: 0.00 MiB
      vbar: 12.59 MiB
    Wavefunctions: 683.83 MiB
      C [qnM]: 59.86 MiB
      S, T [2 x qmm]: 350.98 MiB
      P [aqMi]: 7.44 MiB
      BasisFunctions: 265.55 MiB
      Eigensolver: 0.00 MiB

Total number of cores used: 1

Number of atoms: 47
Number of atomic orbitals: 1199
Number of bands in calculation: 409
Number of valence electrons: 675
Bands to converge: occupied

... initialized

Initializing position-dependent things.

Density initialized from atomic densities
      .-----------------.  
     /|                 |  
    / |                 |  
   /  |                 |  
  /   |                 |  
 *    |                 |  
 |    |                 |  
 |    |                 |  
 |    |                 |  
 |    |   H             |  
 |    |                 |  
 |    |Ir    Ir         |  
 |    | B      B        |  
 |    |                 |  
 |    B      B          |  
 | Mo |   Mo            |  
 |  Ni|   Ni    Ni      |  
 Mo   | Mo              |  
 | Ni | NNi   NNi   Ni  |  
 |    Ni    Ni    Ni    |  
 Ni   |Ni    Ni         |  
 |  NNi   NNi   NNi     |  
 | Ni | NNi   NNi   Ni  |  
 |    |                 |  
 Ni   NNi   NNi   Ni    |  
 |   Ni    Ni    Ni     |  
 |    |                 |  
 |    |                 |  
 |    |                 |  
 |    |                 |  
 |    |                 |  
 |    .-----------------.  
 |   /                 /   
 |  /                 /    
 | /                 /     
 |/                 /      
 *-----------------*       

Atomic positions and initial magnetic moments

Positions:
   0 Ni     1.244508    1.244508    8.000000    ( 0.0000,  0.0000,  0.0000)
   1 Ni     3.733524    1.244508    8.000000    ( 0.0000,  0.0000,  0.0000)
   2 Ni     6.222540    1.244508    8.000000    ( 0.0000,  0.0000,  0.0000)
   3 Ni     1.244508    3.733524    8.000000    ( 0.0000,  0.0000,  0.0000)
   4 Ni     3.733524    3.733524    8.000000    ( 0.0000,  0.0000,  0.0000)
   5 Ni     6.222540    3.733524    8.000000    ( 0.0000,  0.0000,  0.0000)
   6 Ni     1.244508    6.222540    8.000000    ( 0.0000,  0.0000,  0.0000)
   7 Ni     3.733524    6.222540    8.000000    ( 0.0000,  0.0000,  0.0000)
   8 Ni     6.222540    6.222540    8.000000    ( 0.0000,  0.0000,  0.0000)
   9 Ni     0.000000    0.000000    9.760000    ( 0.0000,  0.0000,  0.0000)
  10 Ni     2.489016    0.000000    9.760000    ( 0.0000,  0.0000,  0.0000)
  11 Ni     4.978032    0.000000    9.760000    ( 0.0000,  0.0000,  0.0000)
  12 Ni     0.000000    2.489016    9.760000    ( 0.0000,  0.0000,  0.0000)
  13 Ni     2.489016    2.489016    9.760000    ( 0.0000,  0.0000,  0.0000)
  14 Ni     4.978032    2.489016    9.760000    ( 0.0000,  0.0000,  0.0000)
  15 Ni     0.000000    4.978032    9.760000    ( 0.0000,  0.0000,  0.0000)
  16 Ni     2.489016    4.978032    9.760000    ( 0.0000,  0.0000,  0.0000)
  17 Ni     4.978032    4.978032    9.760000    ( 0.0000,  0.0000,  0.0000)
  18 Ni     1.244508    1.244508   11.520000    ( 0.0000,  0.0000,  0.0000)
  19 Ni     3.733524    1.244508   11.520000    ( 0.0000,  0.0000,  0.0000)
  20 Ni     6.222540    1.244508   11.520000    ( 0.0000,  0.0000,  0.0000)
  21 Ni     1.244508    3.733524   11.520000    ( 0.0000,  0.0000,  0.0000)
  22 Ni     3.733524    3.733524   11.520000    ( 0.0000,  0.0000,  0.0000)
  23 Ni     6.222540    3.733524   11.520000    ( 0.0000,  0.0000,  0.0000)
  24 Ni     1.244508    6.222540   11.520000    ( 0.0000,  0.0000,  0.0000)
  25 Ni     3.733524    6.222540   11.520000    ( 0.0000,  0.0000,  0.0000)
  26 Ni     6.222540    6.222540   11.520000    ( 0.0000,  0.0000,  0.0000)
  27 Ni     0.000000    0.000000   13.280000    ( 0.0000,  0.0000,  0.0000)
  28 Ni     2.489016    0.000000   13.280000    ( 0.0000,  0.0000,  0.0000)
  29 Ni     4.978032    0.000000   13.280000    ( 0.0000,  0.0000,  0.0000)
  30 Ni     0.000000    2.489016   13.280000    ( 0.0000,  0.0000,  0.0000)
  31 Ni     2.489016    2.489016   13.280000    ( 0.0000,  0.0000,  0.0000)
  32 Ni     4.978032    2.489016   13.280000    ( 0.0000,  0.0000,  0.0000)
  33 Ni     0.000000    4.978032   13.280000    ( 0.0000,  0.0000,  0.0000)
  34 Ni     2.489016    4.978032   13.280000    ( 0.0000,  0.0000,  0.0000)
  35 Ni     4.978032    4.978032   13.280000    ( 0.0000,  0.0000,  0.0000)
  36 Mo     0.000000    0.000000   15.480000    ( 0.0000,  0.0000,  0.0000)
  37 B      1.525000    1.525000   17.005000    ( 0.0000,  0.0000,  0.0000)
  38 Mo     0.000000    3.050000   15.480000    ( 0.0000,  0.0000,  0.0000)
  39 B      1.525000    4.575000   17.005000    ( 0.0000,  0.0000,  0.0000)
  40 Mo     3.050000    0.000000   15.480000    ( 0.0000,  0.0000,  0.0000)
  41 B      4.575000    1.525000   17.005000    ( 0.0000,  0.0000,  0.0000)
  42 Mo     3.050000    3.050000   15.480000    ( 0.0000,  0.0000,  0.0000)
  43 B      4.575000    4.575000   17.005000    ( 0.0000,  0.0000,  0.0000)
  44 Ir     1.761494    2.961494   18.805000    ( 0.0000,  0.0000,  0.0000)
  45 Ir     4.161494    2.961494   18.805000    ( 0.0000,  0.0000,  0.0000)
  46 H      2.961494    2.961494   20.305000    ( 0.0000,  0.0000,  0.0000)

Unit cell:
           periodic     x           y           z      points  spacing
  1. axis:    yes    7.467048    0.000000    0.000000    36     0.2074
  2. axis:    yes    0.000000    7.467048    0.000000    36     0.2074
  3. axis:    yes    0.000000    0.000000   25.005000   124     0.2017

  Lengths:   7.467048   7.467048  25.005000
  Angles:   90.000000  90.000000  90.000000

Effective grid spacing dv^(1/3) = 0.2055

     iter     time        total  log10-change:
                         energy   eigst   dens
iter:   1 16:56:49  -874.141911        c
iter:   2 16:58:32 -1723.964992        c -1.01
iter:   3 17:00:45  -697.607079        c -0.60
iter:   4 17:02:46  -473.416519        c -1.05
iter:   5 17:04:38  -410.314205        c -1.31
iter:   6 17:06:38  -419.188525        c -1.46
iter:   7 17:08:31  -356.940395        c -1.36
iter:   8 17:10:52  -352.119963        c -1.54
iter:   9 17:13:27  -355.013038        c -1.63
iter:  10 17:15:11  -352.847547        c -1.64
iter:  11 17:17:10  -354.501569        c -1.62
iter:  12 17:18:54  -348.209270        c -1.69
iter:  13 17:20:43  -353.981723        c -1.85
iter:  14 17:22:38  -351.218041        c -1.75
iter:  15 17:25:19  -353.469073        c -1.77
iter:  16 17:27:29  -353.744822        c -1.77
iter:  17 17:29:14  -348.416852        c -1.85
iter:  18 17:31:40  -372.393233        c -1.93
iter:  19 17:33:28  -345.048873        c -1.51
iter:  20 17:35:48  -344.911166        c -2.01
iter:  21 17:38:20  -343.564380        c -2.04
iter:  22 17:40:20  -343.869896        c -2.28
iter:  23 17:41:59  -343.652925        c -2.10
iter:  24 17:44:21  -345.541323        c -2.20
iter:  25 17:46:48  -343.933015        c -2.06
iter:  26 17:48:53  -342.796480        c -2.18
iter:  27 17:51:03  -342.841171        c -2.44
iter:  28 17:53:04  -343.257040        c -2.35
iter:  29 17:54:53  -342.399747        c -2.34
iter:  30 17:57:19  -342.401831        c -2.66
iter:  31 17:59:32  -342.617845        c -2.77
iter:  32 18:01:34  -342.399622        c -2.51
iter:  33 18:04:07  -342.341062        c -2.79
iter:  34 18:06:22  -342.341837        c -2.97
iter:  35 18:08:58  -342.338821c       c -2.97
iter:  36 18:11:10  -342.327472        c -3.07
iter:  37 18:13:17  -342.335512        c -3.01
iter:  38 18:15:50  -342.314365        c -3.11
iter:  39 18:18:15  -342.344269        c -3.06
iter:  40 18:20:24  -342.339272        c -3.04
iter:  41 18:22:46  -342.309413        c -3.11
iter:  42 18:25:16  -342.311362        c -3.14
iter:  43 18:26:57  -342.305381c       c -3.37
iter:  44 18:29:47  -342.311305c       c -3.41
iter:  45 18:32:20  -342.304591c       c -3.29
iter:  46 18:35:09  -342.318708        c -3.40
iter:  47 18:37:10  -342.306880        c -3.11
iter:  48 18:39:12  -342.303972        c -3.45
iter:  49 18:41:18  -342.305957c       c -3.55
iter:  50 18:43:38  -342.324056        c -3.40
iter:  51 18:46:05  -342.311557        c -3.23
iter:  52 18:48:14  -342.306074        c -3.34
iter:  53 18:49:47  -342.300392        c -3.64
iter:  54 18:51:43  -342.301391c       c -3.65
iter:  55 18:54:22  -342.301531c       c -3.56
iter:  56 18:56:27  -342.301462c       c -3.71
iter:  57 18:58:44  -342.303391c       c -3.59
iter:  58 19:01:04  -342.301139c       c -3.74
iter:  59 19:02:37  -342.305516c       c -3.74
iter:  60 19:04:47  -342.307280c       c -3.55
iter:  61 19:06:56  -342.302212c       c -3.56
iter:  62 19:09:09  -342.302321c       c -3.80
iter:  63 19:11:22  -342.300669c       c -4.00
iter:  64 19:13:18  -342.301201c       c -3.81
iter:  65 19:15:13  -342.301739c       c -3.97
iter:  66 19:17:19  -342.300764c       c -4.02c

Converged after 66 iterations.

Dipole moment: (-13.522628, -13.063121, 0.009255) |e|*Ang

Energy contributions relative to reference atoms: (reference = -2897987.765483)

Kinetic:        +70.052712
Potential:      -35.614323
External:        +0.000000
XC:            -373.208454
Entropy (-ST):   -3.607282
Local:           -1.727058
SIC:             +0.000000
--------------------------
Free energy:   -344.104404
Extrapolated:  -342.300764

Showing only first 2 kpts
 Kpt  Band  Eigenvalues  Occupancy
  0   335      0.00360    1.29008
  0   336      0.01114    1.25519
  0   337      0.02759    1.17681
  0   338      0.04500    1.09142

  1   335      0.00060    1.30376
  1   336      0.01078    1.25685
  1   337      0.01580    1.23326
  1   338      0.02544    1.18721


Fermi level: 0.06333

No gap
No difference between direct/indirect transitions
Timing:                              incl.     excl.
-----------------------------------------------------------
Basic WFS set positions:             0.000     0.000   0.0% |
Basis functions set positions:       0.169     0.169   0.0% |
LCAO WFS Initialize:                 0.395     0.083   0.0% |
 Hamiltonian:                        0.313     0.000   0.0% |
  Atomic:                            0.152     0.002   0.0% |
   XC Correction:                    0.150     0.150   0.0% |
  Calculate atomic Hamiltonians:     0.024     0.024   0.0% |
  Communicate:                       0.000     0.000   0.0% |
  Hartree integrate/restrict:        0.011     0.011   0.0% |
  Initialize Hamiltonian:            0.001     0.001   0.0% |
  Poisson:                           0.077     0.006   0.0% |
   Communicate from 1D:              0.008     0.008   0.0% |
   Communicate from 2D:              0.007     0.007   0.0% |
   Communicate to 1D:                0.008     0.008   0.0% |
   Communicate to 2D:                0.011     0.011   0.0% |
   FFT 1D:                           0.015     0.015   0.0% |
   FFT 2D:                           0.022     0.022   0.0% |
  XC 3D grid:                        0.044     0.044   0.0% |
  vbar:                              0.005     0.005   0.0% |
P tci:                               4.568     4.568   0.1% |
SCF-cycle:                        8489.671     0.240   0.0% |
 Density:                         4293.288     0.001   0.0% |
  Atomic density matrices:           1.140     1.140   0.0% |
  Mix:                               8.310     8.310   0.1% |
  Multipole moments:                 0.018     0.018   0.0% |
  Normalize:                         0.008     0.008   0.0% |
  Pseudo density:                 4283.812     0.029   0.0% |
   Calculate density matrix:        11.797    11.797   0.1% |
   Construct density:             4271.984  4271.984  50.2% |-------------------|
   Symmetrize density:               0.001     0.001   0.0% |
 Hamiltonian:                       22.147     0.003   0.0% |
  Atomic:                            9.880     0.117   0.0% |
   XC Correction:                    9.764     9.764   0.1% |
  Calculate atomic Hamiltonians:     1.591     1.591   0.0% |
  Communicate:                       0.000     0.000   0.0% |
  Hartree integrate/restrict:        0.650     0.650   0.0% |
  Poisson:                           4.999     0.409   0.0% |
   Communicate from 1D:              0.576     0.576   0.0% |
   Communicate from 2D:              0.484     0.484   0.0% |
   Communicate to 1D:                0.461     0.461   0.0% |
   Communicate to 2D:                0.664     0.664   0.0% |
   FFT 1D:                           0.923     0.923   0.0% |
   FFT 2D:                           1.482     1.482   0.0% |
  XC 3D grid:                        4.352     4.352   0.1% |
  vbar:                              0.671     0.671   0.0% |
 LCAO eigensolver:                4173.996     1.883   0.0% |
  Calculate projections:           110.241   110.241   1.3% ||
  DenseAtomicCorrection:           245.958   245.958   2.9% ||
  Distribute overlap matrix:         3.454     3.454   0.0% |
  Orbital Layouts:                3057.021  3057.021  36.0% |-------------|
  Potential matrix:                677.168   677.168   8.0% |--|
  Sum over cells:                   78.270    78.270   0.9% |
ST tci:                              1.791     1.791   0.0% |
Set symmetry:                        0.000     0.000   0.0% |
TCI: Evaluate splines:               0.717     0.717   0.0% |
mktci:                               0.023     0.023   0.0% |
Other:                               6.012     6.012   0.1% |
-----------------------------------------------------------
Total:                                      8503.347 100.0%

Memory usage: 4.71 GiB
Date: Sun Mar  1 19:17:19 2026
