
  ___ ___ ___ _ _ _  
 |   |   |_  | | | | 
 | | | | | . | | | | 
 |__ |  _|___|_____|  25.7.0
 |___|_|             

User:   ubuntu@third-test
Date:   Thu Feb 12 17:53:55 2026
Arch:   x86_64
Pid:    1539777
CWD:    /mnt/vdd1/work/cemea/fairchem/src/fairchem/applications/ocx/mo_h_adsorption_workflow
Python: 3.10.16
gpaw:   /home/ubuntu/.pyenv/versions/cemea-env/lib/python3.10/site-packages/gpaw
_gpaw:  /home/ubuntu/.pyenv/versions/cemea-env/lib/python3.10/site-packages/
        _gpaw.cpython-310-x86_64-linux-gnu.so
ase:    /home/ubuntu/.pyenv/versions/cemea-env/lib/python3.10/site-packages/ase (version 3.27.0)
numpy:  /home/ubuntu/.pyenv/versions/cemea-env/lib/python3.10/site-packages/numpy (version 2.2.6)
scipy:  /home/ubuntu/.pyenv/versions/cemea-env/lib/python3.10/site-packages/scipy (version 1.15.3)
libxc:  2.x.y
units:  Angstrom and eV
cores: 1
OpenMP: False
OMP_NUM_THREADS: 1

Input parameters:
  basis: dzp
  convergence: {density: 0.0001,
                eigenstates: 1e-05,
                energy: 1e-05}
  kpts: [4 4 1]
  mode: lcao

System changes: positions, numbers, cell, pbc, initial_charges, initial_magmoms 

Initialize ...

species:
  Mo:
    name: Molybdenum
    id: ac24daaf086600a00ce6d19a74574df1
    Z: 42.0
    valence: 14
    core: 28
    charge: 0.0
    file: /home/ubuntu/.pyenv/versions/cemea-env/lib/python3.10/site-packages/gpaw_data/setups/Mo.LDA.gz
    compensation charges: {type: gauss,
                           rc: 0.38,
                           lmax: 2}
    cutoffs: {filter: 2.16,
              core: 1.42}
    projectors:
      #              energy  rcut
      - 4s(2.00)   -64.384   1.238
      - 5s(1.00)    -4.319   1.238
      - 4p(6.00)   -38.595   1.296
      - 5p(0.00)    -1.161   1.296
      - 4d(5.00)    -3.933   1.296
      -  d          23.278   1.296
  
    # LCAO basis set for Mo:
    #   Name: dzp
    #   File: /home/ubuntu/.pyenv/versions/cemea-env/lib/python3.10/site-packages/gpaw_data/setups/Mo.dzp.basis.gz
    #   Number of radial functions: 11
    #   Number of spherical harmonics: 29
    #     l=0, rc=3.5469 Bohr: 4s-sz confined orbital
    #     l=0, rc=10.0469 Bohr: 5s-sz confined orbital
    #     l=1, rc=4.0781 Bohr: 4p-sz confined orbital
    #     l=1, rc=14.0938 Bohr: 5p-sz confined orbital
    #     l=2, rc=7.2031 Bohr: 4d-sz confined orbital
    #     l=0, rc=2.1250 Bohr: 4s-dz split-valence wave
    #     l=0, rc=6.1250 Bohr: 5s-dz split-valence wave
    #     l=1, rc=2.5469 Bohr: 4p-dz split-valence wave
    #     l=1, rc=8.7656 Bohr: 5p-dz split-valence wave
    #     l=2, rc=4.2344 Bohr: 4d-dz split-valence wave
    #     l=1, rc=10.0469 Bohr: p-type Gaussian polarization
    #   Number of RI-basis functions 0

  Se:
    name: Selenium
    id: 32bc71fdf0f79e2eec071fc2341e94af
    Z: 34.0
    valence: 6
    core: 28
    charge: 0.0
    file: /home/ubuntu/.pyenv/versions/cemea-env/lib/python3.10/site-packages/gpaw_data/setups/Se.LDA.gz
    compensation charges: {type: gauss,
                           rc: 0.27,
                           lmax: 2}
    cutoffs: {filter: 1.77,
              core: 2.67}
    projectors:
      #              energy  rcut
      - 4s(2.00)   -17.472   0.847
      - 4p(4.00)    -6.656   1.005
      -  s           9.739   0.847
      -  p          20.555   1.005
      -  d           0.000   0.847
  
    # LCAO basis set for Se:
    #   Name: dzp
    #   File: /home/ubuntu/.pyenv/versions/cemea-env/lib/python3.10/site-packages/gpaw_data/setups/Se.dzp.basis.gz
    #   Number of radial functions: 5
    #   Number of spherical harmonics: 13
    #     l=0, rc=5.7344 Bohr: 4s-sz confined orbital
    #     l=1, rc=7.2656 Bohr: 4p-sz confined orbital
    #     l=0, rc=3.1875 Bohr: 4s-dz split-valence wave
    #     l=1, rc=4.2188 Bohr: 4p-dz split-valence wave
    #     l=2, rc=7.2656 Bohr: d-type Gaussian polarization
    #   Number of RI-basis functions 0

Reference energy: -2772615.576542  # eV

Spin-paired calculation

Convergence criteria:
 Maximum [total energy] change in last 3 cyles: 1e-05 eV / valence electron
 Maximum integral of absolute [dens]ity change: 0.0001 electrons / valence electron
 Maximum integral of absolute [eigenst]ate change: 1e-05 eV^2 / valence electron
 Maximum number of scf [iter]ations: 333
 (Square brackets indicate name in SCF output, whereas a 'c' in
 the SCF output indicates the quantity has converged.)

Symmetries present (total): 1

  ( 1  0  0)
  ( 0  1  0)
  ( 0  0  1)

16 k-points: 4 x 4 x 1 Monkhorst-Pack grid
8 k-points in the irreducible part of the Brillouin zone
       k-points in crystal coordinates                weights
   0:     0.12500000   -0.37500000    0.00000000          2/16
   1:     0.12500000   -0.12500000    0.00000000          2/16
   2:     0.12500000    0.12500000    0.00000000          2/16
   3:     0.12500000    0.37500000    0.00000000          2/16
   4:     0.37500000   -0.37500000    0.00000000          2/16
   5:     0.37500000   -0.12500000    0.00000000          2/16
   6:     0.37500000    0.12500000    0.00000000          2/16
   7:     0.37500000    0.37500000    0.00000000          2/16

Wave functions: LCAO
  Diagonalizer: Serial LAPACK
  Atomic Correction: dense with blas
  Data-type: complex
 

Occupation numbers: Fermi-Dirac:
  width: 0.1000  # eV
 

Eigensolver
   LCAO using direct dense diagonalizer 

Densities:
  Coarse grid: 160*28*96 grid
  Fine grid: 320*56*192 grid
  Total Charge: 0.000000 

Density mixing:
  Method: separate
  Backend: pulay
  Linear mixing parameter: 0.05
  old densities: 5
  Damping of long wavelength oscillations: 50 

Hamiltonian:
  XC and Coulomb potentials evaluated on a 320*56*192 grid
  Using the LDA Exchange-Correlation functional
  Interpolation: tri-quintic (5. degree polynomial)
  Poisson solver: FastPoissonSolver using
    Stencil: 8*3+1=25 point O(h^6) finite-difference Laplacian
    FFT axes: [np.int64(0), np.int64(1), np.int64(2)]
    FST axes: []
 

Memory estimate:
  Process memory now: 1584.81 MiB
  Calculator: 535.21 MiB
    Density: 214.69 MiB
      Arrays: 85.31 MiB
      Localized functions: 96.56 MiB
      Mixer: 32.81 MiB
    Hamiltonian: 62.39 MiB
      Arrays: 55.78 MiB
      XC: 0.00 MiB
      Poisson: 0.00 MiB
      vbar: 6.61 MiB
    Wavefunctions: 258.13 MiB
      C [qnM]: 14.24 MiB
      S, T [2 x qmm]: 98.13 MiB
      P [aqMi]: 2.43 MiB
      BasisFunctions: 143.33 MiB
      Eigensolver: 0.00 MiB

Total number of cores used: 1

Number of atoms: 34
Number of atomic orbitals: 634
Number of bands in calculation: 184
Number of valence electrons: 300
Bands to converge: occupied

... initialized

Initializing position-dependent things.

Density initialized from atomic densities
                                                               
                                                               
                                                               
                                                               
                  Se      Se      Se      Se      Se           
            Se      Se      Se      Se      Se      Se         
                                                               
         Mo      Mo      Mo      Mo      Mo      Mo            
           MoSe    MoSe    MoSe    MoSe    MoSe    MoSe        
                                                               
                Se      Se      Se      Se      Se             
                                                               
                                                               
                                                               
                                                               

Atomic positions and initial magnetic moments

Positions:
   0 Mo     9.237604    0.000000    9.559400    ( 0.0000,  0.0000,  0.0000)
   1 Se     9.237604    1.898905   11.118800    ( 0.0000,  0.0000,  0.0000)
   2 Se    10.882104    0.949453    8.000000    ( 0.0000,  0.0000,  0.0000)
   3 Mo     7.593104    2.848358    9.559400    ( 0.0000,  0.0000,  0.0000)
   4 Se     9.237604    3.797810    8.000000    ( 0.0000,  0.0000,  0.0000)
   5 Mo    12.526604    0.000000    9.559400    ( 0.0000,  0.0000,  0.0000)
   6 Se    12.526604    1.898905   11.118800    ( 0.0000,  0.0000,  0.0000)
   7 Se    14.171104    0.949453    8.000000    ( 0.0000,  0.0000,  0.0000)
   8 Mo    10.882104    2.848358    9.559400    ( 0.0000,  0.0000,  0.0000)
   9 Se    10.882104    4.747263   11.118800    ( 0.0000,  0.0000,  0.0000)
  10 Se    12.526604    3.797810    8.000000    ( 0.0000,  0.0000,  0.0000)
  11 Mo    15.815604    0.000000    9.559400    ( 0.0000,  0.0000,  0.0000)
  12 Se    15.815604    1.898905   11.118800    ( 0.0000,  0.0000,  0.0000)
  13 Se    17.460104    0.949453    8.000000    ( 0.0000,  0.0000,  0.0000)
  14 Mo    14.171104    2.848358    9.559400    ( 0.0000,  0.0000,  0.0000)
  15 Se    14.171104    4.747263   11.118800    ( 0.0000,  0.0000,  0.0000)
  16 Se    15.815604    3.797810    8.000000    ( 0.0000,  0.0000,  0.0000)
  17 Mo    19.104604    0.000000    9.559400    ( 0.0000,  0.0000,  0.0000)
  18 Se    19.104604    1.898905   11.118800    ( 0.0000,  0.0000,  0.0000)
  19 Se    20.749104    0.949453    8.000000    ( 0.0000,  0.0000,  0.0000)
  20 Mo    17.460104    2.848358    9.559400    ( 0.0000,  0.0000,  0.0000)
  21 Se    17.460104    4.747263   11.118800    ( 0.0000,  0.0000,  0.0000)
  22 Se    19.104604    3.797810    8.000000    ( 0.0000,  0.0000,  0.0000)
  23 Mo    22.393604    0.000000    9.559400    ( 0.0000,  0.0000,  0.0000)
  24 Se    22.393604    1.898905   11.118800    ( 0.0000,  0.0000,  0.0000)
  25 Se    24.038104    0.949453    8.000000    ( 0.0000,  0.0000,  0.0000)
  26 Mo    20.749104    2.848358    9.559400    ( 0.0000,  0.0000,  0.0000)
  27 Se    20.749104    4.747263   11.118800    ( 0.0000,  0.0000,  0.0000)
  28 Se    22.393604    3.797810    8.000000    ( 0.0000,  0.0000,  0.0000)
  29 Mo    25.682604    0.000000    9.559400    ( 0.0000,  0.0000,  0.0000)
  30 Se    25.682604    1.898905   11.118800    ( 0.0000,  0.0000,  0.0000)
  31 Mo    24.038104    2.848358    9.559400    ( 0.0000,  0.0000,  0.0000)
  32 Se    24.038104    4.747263   11.118800    ( 0.0000,  0.0000,  0.0000)
  33 Se    25.682604    3.797810    8.000000    ( 0.0000,  0.0000,  0.0000)

Unit cell:
           periodic     x           y           z      points  spacing
  1. axis:    yes   37.112875    0.000000    0.000000   160     0.2009
  2. axis:    yes   -3.289000    5.696715    0.000000    28     0.2035
  3. axis:    yes    0.000000    0.000000   19.118800    96     0.1992

  Lengths:  37.112875   6.578000  19.118800
  Angles:   90.000000  90.000000 120.000000

Effective grid spacing dv^(1/3) = 0.2110

     iter     time        total  log10-change:
                         energy   eigst   dens
iter:   1 17:54:13  -242.621004        c
iter:   2 17:54:48  -247.012197        c -1.18
iter:   3 17:55:22  -234.972712        c -1.13
iter:   4 17:55:59  -231.807869        c -1.27
iter:   5 17:56:35  -230.552464        c -1.32
iter:   6 17:57:10  -229.138507        c -1.36
iter:   7 17:57:45  -228.260119        c -1.48
iter:   8 17:58:21  -228.203005        c -1.59
iter:   9 17:58:55  -228.759718        c -1.65
iter:  10 17:59:32  -227.830623        c -1.59
iter:  11 18:00:07  -227.781560        c -1.90
iter:  12 18:00:43  -227.599584        c -1.98
iter:  13 18:01:17  -227.573293        c -2.17
iter:  14 18:01:52  -227.546752        c -2.27
iter:  15 18:02:27  -227.532288        c -2.40
iter:  16 18:03:01  -227.532631        c -2.65
iter:  17 18:03:38  -227.528802        c -2.68
iter:  18 18:04:11  -227.527891        c -2.92
iter:  19 18:04:47  -227.526651c       c -3.00
iter:  20 18:05:21  -227.526512c       c -3.10
iter:  21 18:05:57  -227.525562c       c -3.23
iter:  22 18:06:31  -227.525822c       c -3.21
iter:  23 18:07:07  -227.525588c       c -3.43
iter:  24 18:07:42  -227.525668c       c -3.53
iter:  25 18:08:17  -227.525795c       c -3.76
iter:  26 18:08:52  -227.525794c       c -3.97
iter:  27 18:09:28  -227.525964c       c -4.06c

Converged after 27 iterations.

Dipole moment: (2.829643, -7.549702, 0.057320) |e|*Ang

Energy contributions relative to reference atoms: (reference = -2772615.576542)

Kinetic:       +305.753336
Potential:     -324.770796
External:        +0.000000
XC:            -210.148950
Entropy (-ST):   -0.730980
Local:           +2.005936
SIC:             +0.000000
--------------------------
Free energy:   -227.891454
Extrapolated:  -227.525964

Showing only first 2 kpts
 Kpt  Band  Eigenvalues  Occupancy
  0   148     -2.69176    1.47970
  0   149     -2.67429    1.40970
  0   150     -2.56651    0.89668
  0   151     -2.45652    0.42590

  1   148     -2.75482    1.68467
  1   149     -2.61688    1.14708
  1   150     -2.47179    0.47932
  1   151     -2.42528    0.33051


Fermi level: -2.58724

Gap: 0.050 eV
Transition (v -> c):
  (s=0, k=1, n=149, [0.12, -0.12, 0.00]) -> (s=0, k=0, n=150, [0.12, -0.38, 0.00])
Direct/indirect transitions are different
Direct gap: 0.108 eV
Transition at: (s=0, k=0, n=149, [0.12, -0.38, 0.00])
Timing:                              incl.     excl.
-----------------------------------------------------------
Basic WFS set positions:             0.001     0.001   0.0% |
Basis functions set positions:       0.179     0.179   0.0% |
LCAO WFS Initialize:                 1.076     0.165   0.0% |
 Hamiltonian:                        0.912     0.000   0.0% |
  Atomic:                            0.224     0.002   0.0% |
   XC Correction:                    0.222     0.222   0.0% |
  Calculate atomic Hamiltonians:     0.019     0.019   0.0% |
  Communicate:                       0.000     0.000   0.0% |
  Hartree integrate/restrict:        0.040     0.040   0.0% |
  Initialize Hamiltonian:            0.000     0.000   0.0% |
  Poisson:                           0.440     0.015   0.0% |
   Communicate from 1D:              0.064     0.064   0.0% |
   Communicate from 2D:              0.065     0.065   0.0% |
   Communicate to 1D:                0.074     0.074   0.0% |
   Communicate to 2D:                0.064     0.064   0.0% |
   FFT 1D:                           0.042     0.042   0.0% |
   FFT 2D:                           0.117     0.117   0.0% |
  XC 3D grid:                        0.168     0.168   0.0% |
  vbar:                              0.020     0.020   0.0% |
P tci:                               2.441     2.441   0.3% |
SCF-cycle:                         923.745     0.044   0.0% |
 Density:                          651.706     0.001   0.0% |
  Atomic density matrices:           0.333     0.333   0.0% |
  Mix:                               6.723     6.723   0.7% |
  Multipole moments:                 0.014     0.014   0.0% |
  Normalize:                         0.012     0.012   0.0% |
  Pseudo density:                  644.624     0.047   0.0% |
   Calculate density matrix:         4.410     4.410   0.5% |
   Construct density:              640.166   640.166  68.6% |--------------------------|
   Symmetrize density:               0.001     0.001   0.0% |
 Hamiltonian:                       25.087     0.003   0.0% |
  Atomic:                            5.882     0.057   0.0% |
   XC Correction:                    5.826     5.826   0.6% |
  Calculate atomic Hamiltonians:     0.518     0.518   0.1% |
  Communicate:                       0.000     0.000   0.0% |
  Hartree integrate/restrict:        1.351     1.351   0.1% |
  Poisson:                          11.934     0.392   0.0% |
   Communicate from 1D:              1.769     1.769   0.2% |
   Communicate from 2D:              1.780     1.780   0.2% |
   Communicate to 1D:                1.882     1.882   0.2% |
   Communicate to 2D:                1.734     1.734   0.2% |
   FFT 1D:                           1.148     1.148   0.1% |
   FFT 2D:                           3.230     3.230   0.3% |
  XC 3D grid:                        4.708     4.708   0.5% |
  vbar:                              0.689     0.689   0.1% |
 LCAO eigensolver:                 246.907     0.126   0.0% |
  Calculate projections:             8.541     8.541   0.9% |
  DenseAtomicCorrection:            45.006    45.006   4.8% |-|
  Distribute overlap matrix:         0.171     0.171   0.0% |
  Orbital Layouts:                  67.132    67.132   7.2% |--|
  Potential matrix:                122.263   122.263  13.1% |----|
  Sum over cells:                    3.669     3.669   0.4% |
ST tci:                              0.597     0.597   0.1% |
Set symmetry:                        0.001     0.001   0.0% |
TCI: Evaluate splines:               0.265     0.265   0.0% |
mktci:                               0.013     0.013   0.0% |
Other:                               4.348     4.348   0.5% |
-----------------------------------------------------------
Total:                                       932.665 100.0%

Memory usage: 1.55 GiB
Date: Thu Feb 12 18:09:28 2026
