
  ___ ___ ___ _ _ _  
 |   |   |_  | | | | 
 | | | | | . | | | | 
 |__ |  _|___|_____|  25.7.0
 |___|_|             

User:   ubuntu@third-test
Date:   Thu Feb 12 18:09:28 2026
Arch:   x86_64
Pid:    1539777
CWD:    /mnt/vdd1/work/cemea/fairchem/src/fairchem/applications/ocx/mo_h_adsorption_workflow
Python: 3.10.16
gpaw:   /home/ubuntu/.pyenv/versions/cemea-env/lib/python3.10/site-packages/gpaw
_gpaw:  /home/ubuntu/.pyenv/versions/cemea-env/lib/python3.10/site-packages/
        _gpaw.cpython-310-x86_64-linux-gnu.so
ase:    /home/ubuntu/.pyenv/versions/cemea-env/lib/python3.10/site-packages/ase (version 3.27.0)
numpy:  /home/ubuntu/.pyenv/versions/cemea-env/lib/python3.10/site-packages/numpy (version 2.2.6)
scipy:  /home/ubuntu/.pyenv/versions/cemea-env/lib/python3.10/site-packages/scipy (version 1.15.3)
libxc:  2.x.y
units:  Angstrom and eV
cores: 1
OpenMP: False
OMP_NUM_THREADS: 1

Input parameters:
  basis: dzp
  convergence: {density: 0.0001,
                eigenstates: 1e-05,
                energy: 1e-05}
  kpts: [4 4 1]
  mode: lcao

System changes: positions, numbers, cell, pbc, initial_charges, initial_magmoms 

Initialize ...

species:
  Mo:
    name: Molybdenum
    id: ac24daaf086600a00ce6d19a74574df1
    Z: 42.0
    valence: 14
    core: 28
    charge: 0.0
    file: /home/ubuntu/.pyenv/versions/cemea-env/lib/python3.10/site-packages/gpaw_data/setups/Mo.LDA.gz
    compensation charges: {type: gauss,
                           rc: 0.38,
                           lmax: 2}
    cutoffs: {filter: 2.16,
              core: 1.42}
    projectors:
      #              energy  rcut
      - 4s(2.00)   -64.384   1.238
      - 5s(1.00)    -4.319   1.238
      - 4p(6.00)   -38.595   1.296
      - 5p(0.00)    -1.161   1.296
      - 4d(5.00)    -3.933   1.296
      -  d          23.278   1.296
  
    # LCAO basis set for Mo:
    #   Name: dzp
    #   File: /home/ubuntu/.pyenv/versions/cemea-env/lib/python3.10/site-packages/gpaw_data/setups/Mo.dzp.basis.gz
    #   Number of radial functions: 11
    #   Number of spherical harmonics: 29
    #     l=0, rc=3.5469 Bohr: 4s-sz confined orbital
    #     l=0, rc=10.0469 Bohr: 5s-sz confined orbital
    #     l=1, rc=4.0781 Bohr: 4p-sz confined orbital
    #     l=1, rc=14.0938 Bohr: 5p-sz confined orbital
    #     l=2, rc=7.2031 Bohr: 4d-sz confined orbital
    #     l=0, rc=2.1250 Bohr: 4s-dz split-valence wave
    #     l=0, rc=6.1250 Bohr: 5s-dz split-valence wave
    #     l=1, rc=2.5469 Bohr: 4p-dz split-valence wave
    #     l=1, rc=8.7656 Bohr: 5p-dz split-valence wave
    #     l=2, rc=4.2344 Bohr: 4d-dz split-valence wave
    #     l=1, rc=10.0469 Bohr: p-type Gaussian polarization
    #   Number of RI-basis functions 0

  Se:
    name: Selenium
    id: 32bc71fdf0f79e2eec071fc2341e94af
    Z: 34.0
    valence: 6
    core: 28
    charge: 0.0
    file: /home/ubuntu/.pyenv/versions/cemea-env/lib/python3.10/site-packages/gpaw_data/setups/Se.LDA.gz
    compensation charges: {type: gauss,
                           rc: 0.27,
                           lmax: 2}
    cutoffs: {filter: 1.77,
              core: 2.67}
    projectors:
      #              energy  rcut
      - 4s(2.00)   -17.472   0.847
      - 4p(4.00)    -6.656   1.005
      -  s           9.739   0.847
      -  p          20.555   1.005
      -  d           0.000   0.847
  
    # LCAO basis set for Se:
    #   Name: dzp
    #   File: /home/ubuntu/.pyenv/versions/cemea-env/lib/python3.10/site-packages/gpaw_data/setups/Se.dzp.basis.gz
    #   Number of radial functions: 5
    #   Number of spherical harmonics: 13
    #     l=0, rc=5.7344 Bohr: 4s-sz confined orbital
    #     l=1, rc=7.2656 Bohr: 4p-sz confined orbital
    #     l=0, rc=3.1875 Bohr: 4s-dz split-valence wave
    #     l=1, rc=4.2188 Bohr: 4p-dz split-valence wave
    #     l=2, rc=7.2656 Bohr: d-type Gaussian polarization
    #   Number of RI-basis functions 0

  H:
    name: Hydrogen
    id: 4766778ce56282eaa64abeb28b7c1de3
    Z: 1.0
    valence: 1
    core: 0
    charge: 0.0
    file: /home/ubuntu/.pyenv/versions/cemea-env/lib/python3.10/site-packages/gpaw_data/setups/H.LDA.gz
    compensation charges: {type: gauss,
                           rc: 0.15,
                           lmax: 2}
    cutoffs: {filter: 0.85,
              core: 0.53}
    projectors:
      #              energy  rcut
      - 1s(1.00)    -6.353   0.476
      -  s          20.858   0.476
      -  p           0.000   0.476
  
    # LCAO basis set for H:
    #   Name: dzp
    #   File: /home/ubuntu/.pyenv/versions/cemea-env/lib/python3.10/site-packages/gpaw_data/setups/H.dzp.basis.gz
    #   Number of radial functions: 3
    #   Number of spherical harmonics: 5
    #     l=0, rc=6.4219 Bohr: 1s-sz confined orbital
    #     l=0, rc=3.6094 Bohr: 1s-dz split-valence wave
    #     l=1, rc=6.4219 Bohr: p-type Gaussian polarization
    #   Number of RI-basis functions 0

Reference energy: -2772627.705501  # eV

Spin-paired calculation

Convergence criteria:
 Maximum [total energy] change in last 3 cyles: 1e-05 eV / valence electron
 Maximum integral of absolute [dens]ity change: 0.0001 electrons / valence electron
 Maximum integral of absolute [eigenst]ate change: 1e-05 eV^2 / valence electron
 Maximum number of scf [iter]ations: 333
 (Square brackets indicate name in SCF output, whereas a 'c' in
 the SCF output indicates the quantity has converged.)

Symmetries present (total): 1

  ( 1  0  0)
  ( 0  1  0)
  ( 0  0  1)

16 k-points: 4 x 4 x 1 Monkhorst-Pack grid
8 k-points in the irreducible part of the Brillouin zone
       k-points in crystal coordinates                weights
   0:     0.12500000   -0.37500000    0.00000000          2/16
   1:     0.12500000   -0.12500000    0.00000000          2/16
   2:     0.12500000    0.12500000    0.00000000          2/16
   3:     0.12500000    0.37500000    0.00000000          2/16
   4:     0.37500000   -0.37500000    0.00000000          2/16
   5:     0.37500000   -0.12500000    0.00000000          2/16
   6:     0.37500000    0.12500000    0.00000000          2/16
   7:     0.37500000    0.37500000    0.00000000          2/16

Wave functions: LCAO
  Diagonalizer: Serial LAPACK
  Atomic Correction: dense with blas
  Data-type: complex
 

Occupation numbers: Fermi-Dirac:
  width: 0.1000  # eV
 

Eigensolver
   LCAO using direct dense diagonalizer 

Densities:
  Coarse grid: 160*28*96 grid
  Fine grid: 320*56*192 grid
  Total Charge: 0.000000 

Density mixing:
  Method: separate
  Backend: pulay
  Linear mixing parameter: 0.05
  old densities: 5
  Damping of long wavelength oscillations: 50 

Hamiltonian:
  XC and Coulomb potentials evaluated on a 320*56*192 grid
  Using the LDA Exchange-Correlation functional
  Interpolation: tri-quintic (5. degree polynomial)
  Poisson solver: FastPoissonSolver using
    Stencil: 8*3+1=25 point O(h^6) finite-difference Laplacian
    FFT axes: [np.int64(0), np.int64(1), np.int64(2)]
    FST axes: []
 

Memory estimate:
  Process memory now: 1584.81 MiB
  Calculator: 537.79 MiB
    Density: 214.90 MiB
      Arrays: 85.31 MiB
      Localized functions: 96.78 MiB
      Mixer: 32.81 MiB
    Hamiltonian: 62.41 MiB
      Arrays: 55.78 MiB
      XC: 0.00 MiB
      Poisson: 0.00 MiB
      vbar: 6.63 MiB
    Wavefunctions: 260.47 MiB
      C [qnM]: 14.43 MiB
      S, T [2 x qmm]: 99.69 MiB
      P [aqMi]: 2.47 MiB
      BasisFunctions: 143.88 MiB
      Eigensolver: 0.00 MiB

Total number of cores used: 1

Number of atoms: 35
Number of atomic orbitals: 639
Number of bands in calculation: 185
Number of valence electrons: 301
Bands to converge: occupied

... initialized

Initializing position-dependent things.

Density initialized from atomic densities
                                                               
                                                               
                                                               
                                                               
                                                               
                                H                              
                  Se      Se      Se      Se      Se           
            Se      Se      Se      Se      Se      Se         
                                                               
         Mo      Mo      Mo      Mo      Mo      Mo            
           MoSe    MoSe    MoSe    MoSe    MoSe    MoSe        
                                                               
                Se      Se      Se      Se      Se             
                                                               
                                                               
                                                               
                                                               

Atomic positions and initial magnetic moments

Positions:
   0 Mo     9.237604    0.000000    9.559400    ( 0.0000,  0.0000,  0.0000)
   1 Se     9.237604    1.898905   11.118800    ( 0.0000,  0.0000,  0.0000)
   2 Se    10.882104    0.949453    8.000000    ( 0.0000,  0.0000,  0.0000)
   3 Mo     7.593104    2.848358    9.559400    ( 0.0000,  0.0000,  0.0000)
   4 Se     9.237604    3.797810    8.000000    ( 0.0000,  0.0000,  0.0000)
   5 Mo    12.526604    0.000000    9.559400    ( 0.0000,  0.0000,  0.0000)
   6 Se    12.526604    1.898905   11.118800    ( 0.0000,  0.0000,  0.0000)
   7 Se    14.171104    0.949453    8.000000    ( 0.0000,  0.0000,  0.0000)
   8 Mo    10.882104    2.848358    9.559400    ( 0.0000,  0.0000,  0.0000)
   9 Se    10.882104    4.747263   11.118800    ( 0.0000,  0.0000,  0.0000)
  10 Se    12.526604    3.797810    8.000000    ( 0.0000,  0.0000,  0.0000)
  11 Mo    15.815604    0.000000    9.559400    ( 0.0000,  0.0000,  0.0000)
  12 Se    15.815604    1.898905   11.118800    ( 0.0000,  0.0000,  0.0000)
  13 Se    17.460104    0.949453    8.000000    ( 0.0000,  0.0000,  0.0000)
  14 Mo    14.171104    2.848358    9.559400    ( 0.0000,  0.0000,  0.0000)
  15 Se    14.171104    4.747263   11.118800    ( 0.0000,  0.0000,  0.0000)
  16 Se    15.815604    3.797810    8.000000    ( 0.0000,  0.0000,  0.0000)
  17 Mo    19.104604    0.000000    9.559400    ( 0.0000,  0.0000,  0.0000)
  18 Se    19.104604    1.898905   11.118800    ( 0.0000,  0.0000,  0.0000)
  19 Se    20.749104    0.949453    8.000000    ( 0.0000,  0.0000,  0.0000)
  20 Mo    17.460104    2.848358    9.559400    ( 0.0000,  0.0000,  0.0000)
  21 Se    17.460104    4.747263   11.118800    ( 0.0000,  0.0000,  0.0000)
  22 Se    19.104604    3.797810    8.000000    ( 0.0000,  0.0000,  0.0000)
  23 Mo    22.393604    0.000000    9.559400    ( 0.0000,  0.0000,  0.0000)
  24 Se    22.393604    1.898905   11.118800    ( 0.0000,  0.0000,  0.0000)
  25 Se    24.038104    0.949453    8.000000    ( 0.0000,  0.0000,  0.0000)
  26 Mo    20.749104    2.848358    9.559400    ( 0.0000,  0.0000,  0.0000)
  27 Se    20.749104    4.747263   11.118800    ( 0.0000,  0.0000,  0.0000)
  28 Se    22.393604    3.797810    8.000000    ( 0.0000,  0.0000,  0.0000)
  29 Mo    25.682604    0.000000    9.559400    ( 0.0000,  0.0000,  0.0000)
  30 Se    25.682604    1.898905   11.118800    ( 0.0000,  0.0000,  0.0000)
  31 Mo    24.038104    2.848358    9.559400    ( 0.0000,  0.0000,  0.0000)
  32 Se    24.038104    4.747263   11.118800    ( 0.0000,  0.0000,  0.0000)
  33 Se    25.682604    3.797810    8.000000    ( 0.0000,  0.0000,  0.0000)
  34 H     17.169898    2.345706   12.618800    ( 0.0000,  0.0000,  0.0000)

Unit cell:
           periodic     x           y           z      points  spacing
  1. axis:    yes   37.112875    0.000000    0.000000   160     0.2009
  2. axis:    yes   -3.289000    5.696715    0.000000    28     0.2035
  3. axis:    yes    0.000000    0.000000   19.118800    96     0.1992

  Lengths:  37.112875   6.578000  19.118800
  Angles:   90.000000  90.000000 120.000000

Effective grid spacing dv^(1/3) = 0.2110

     iter     time        total  log10-change:
                         energy   eigst   dens
iter:   1 18:09:47  -244.058015        c
iter:   2 18:10:22  -248.524170        c -1.17
iter:   3 18:10:58  -236.367565        c -1.13
iter:   4 18:11:34  -233.298214        c -1.27
iter:   5 18:12:11  -232.227986        c -1.32
iter:   6 18:12:46  -230.766778        c -1.35
iter:   7 18:13:22  -229.799527        c -1.45
iter:   8 18:13:58  -229.721494        c -1.57
iter:   9 18:14:34  -230.312021        c -1.64
iter:  10 18:15:10  -229.286548        c -1.58
iter:  11 18:15:44  -229.264382        c -1.90
iter:  12 18:16:20  -229.066331        c -1.96
iter:  13 18:16:56  -229.046984        c -2.18
iter:  14 18:17:30  -229.019750        c -2.26
iter:  15 18:18:05  -229.004714        c -2.42
iter:  16 18:18:41  -229.004205        c -2.68
iter:  17 18:19:16  -229.000868        c -2.69
iter:  18 18:19:51  -228.999713        c -2.89
iter:  19 18:20:28  -228.998787c       c -3.00
iter:  20 18:21:03  -228.998801c       c -3.08
iter:  21 18:21:38  -228.997789c       c -3.19
iter:  22 18:22:14  -228.998124c       c -3.17
iter:  23 18:22:50  -228.997809c       c -3.41
iter:  24 18:23:24  -228.997912c       c -3.52
iter:  25 18:23:59  -228.998061c       c -3.74
iter:  26 18:24:35  -228.998043c       c -3.97
iter:  27 18:25:10  -228.998215c       c -4.05c

Converged after 27 iterations.

Dipole moment: (2.835492, -7.544059, 0.029168) |e|*Ang

Energy contributions relative to reference atoms: (reference = -2772627.705501)

Kinetic:       +305.914222
Potential:     -324.739878
External:        +0.000000
XC:            -211.804069
Entropy (-ST):   -0.773556
Local:           +2.018288
SIC:             +0.000000
--------------------------
Free energy:   -229.384993
Extrapolated:  -228.998215

Showing only first 2 kpts
 Kpt  Band  Eigenvalues  Occupancy
  0   148     -2.76923    1.69730
  0   149     -2.69437    1.45238
  0   150     -2.65817    1.29742
  0   151     -2.54788    0.76003

  1   148     -2.77925    1.72213
  1   149     -2.65919    1.30208
  1   150     -2.50072    0.55333
  1   151     -2.45758    0.39802


Fermi level: -2.59683

No gap
No difference between direct/indirect transitions
Timing:                              incl.     excl.
-----------------------------------------------------------
Basic WFS set positions:             0.001     0.001   0.0% |
Basis functions set positions:       0.187     0.187   0.0% |
LCAO WFS Initialize:                 1.080     0.164   0.0% |
 Hamiltonian:                        0.916     0.000   0.0% |
  Atomic:                            0.227     0.002   0.0% |
   XC Correction:                    0.225     0.225   0.0% |
  Calculate atomic Hamiltonians:     0.019     0.019   0.0% |
  Communicate:                       0.000     0.000   0.0% |
  Hartree integrate/restrict:        0.043     0.043   0.0% |
  Initialize Hamiltonian:            0.000     0.000   0.0% |
  Poisson:                           0.439     0.015   0.0% |
   Communicate from 1D:              0.064     0.064   0.0% |
   Communicate from 2D:              0.065     0.065   0.0% |
   Communicate to 1D:                0.074     0.074   0.0% |
   Communicate to 2D:                0.063     0.063   0.0% |
   FFT 1D:                           0.042     0.042   0.0% |
   FFT 2D:                           0.117     0.117   0.0% |
  XC 3D grid:                        0.168     0.168   0.0% |
  vbar:                              0.020     0.020   0.0% |
P tci:                               2.985     2.985   0.3% |
SCF-cycle:                         932.742     0.038   0.0% |
 Density:                          665.106     0.001   0.0% |
  Atomic density matrices:           0.347     0.347   0.0% |
  Mix:                               6.988     6.988   0.7% |
  Multipole moments:                 0.014     0.014   0.0% |
  Normalize:                         0.013     0.013   0.0% |
  Pseudo density:                  657.744     0.046   0.0% |
   Calculate density matrix:         4.048     4.048   0.4% |
   Construct density:              653.649   653.649  69.3% |---------------------------|
   Symmetrize density:               0.001     0.001   0.0% |
 Hamiltonian:                       25.664     0.003   0.0% |
  Atomic:                            5.926     0.058   0.0% |
   XC Correction:                    5.868     5.868   0.6% |
  Calculate atomic Hamiltonians:     0.505     0.505   0.1% |
  Communicate:                       0.000     0.000   0.0% |
  Hartree integrate/restrict:        1.328     1.328   0.1% |
  Poisson:                          12.646     0.435   0.0% |
   Communicate from 1D:              1.899     1.899   0.2% |
   Communicate from 2D:              1.893     1.893   0.2% |
   Communicate to 1D:                2.004     2.004   0.2% |
   Communicate to 2D:                1.842     1.842   0.2% |
   FFT 1D:                           1.219     1.219   0.1% |
   FFT 2D:                           3.353     3.353   0.4% |
  XC 3D grid:                        4.646     4.646   0.5% |
  vbar:                              0.610     0.610   0.1% |
 LCAO eigensolver:                 241.935     0.112   0.0% |
  Calculate projections:             6.140     6.140   0.7% |
  DenseAtomicCorrection:            44.721    44.721   4.7% |-|
  Distribute overlap matrix:         0.163     0.163   0.0% |
  Orbital Layouts:                  63.020    63.020   6.7% |--|
  Potential matrix:                124.241   124.241  13.2% |----|
  Sum over cells:                    3.537     3.537   0.4% |
ST tci:                              0.634     0.634   0.1% |
Set symmetry:                        0.001     0.001   0.0% |
TCI: Evaluate splines:               0.360     0.360   0.0% |
mktci:                               0.017     0.017   0.0% |
Other:                               4.531     4.531   0.5% |
-----------------------------------------------------------
Total:                                       942.537 100.0%

Memory usage: 1.55 GiB
Date: Thu Feb 12 18:25:10 2026
