
  ___ ___ ___ _ _ _  
 |   |   |_  | | | | 
 | | | | | . | | | | 
 |__ |  _|___|_____|  25.7.0
 |___|_|             

User:   mikei@Z790-AORUS-ELITE-AX
Date:   Fri Feb 20 19:03:42 2026
Arch:   x86_64
Pid:    89048
CWD:    /home/mikei/Dokumenty/code/cemea/ocx
Python: 3.10.16
gpaw:   /home/mikei/.pyenv/versions/cemea-env/lib/python3.10/site-packages/gpaw
_gpaw:  /home/mikei/.pyenv/versions/cemea-env/lib/python3.10/site-packages/
        _gpaw.cpython-310-x86_64-linux-gnu.so
ase:    /home/mikei/.pyenv/versions/cemea-env/lib/python3.10/site-packages/ase (version 3.27.0)
numpy:  /home/mikei/.pyenv/versions/cemea-env/lib/python3.10/site-packages/numpy (version 2.2.6)
scipy:  /home/mikei/.pyenv/versions/cemea-env/lib/python3.10/site-packages/scipy (version 1.15.3)
libxc:  2.x.y
units:  Angstrom and eV
cores: 1
OpenMP: False
OMP_NUM_THREADS: 1

Input parameters:
  basis: dzp
  convergence: {density: 0.0001,
                eigenstates: 1e-05,
                energy: 1e-05}
  kpts: [4 4 1]
  mode: lcao

System changes: positions, numbers, cell, pbc, initial_charges, initial_magmoms 

Initialize ...

species:
  Mo:
    name: Molybdenum
    id: ac24daaf086600a00ce6d19a74574df1
    Z: 42.0
    valence: 14
    core: 28
    charge: 0.0
    file: /home/mikei/.pyenv/versions/cemea-env/lib/python3.10/site-packages/gpaw_data/setups/Mo.LDA.gz
    compensation charges: {type: gauss,
                           rc: 0.38,
                           lmax: 2}
    cutoffs: {filter: 2.16,
              core: 1.42}
    projectors:
      #              energy  rcut
      - 4s(2.00)   -64.384   1.238
      - 5s(1.00)    -4.319   1.238
      - 4p(6.00)   -38.595   1.296
      - 5p(0.00)    -1.161   1.296
      - 4d(5.00)    -3.933   1.296
      -  d          23.278   1.296
  
    # LCAO basis set for Mo:
    #   Name: dzp
    #   File: /home/mikei/.pyenv/versions/cemea-env/lib/python3.10/site-packages/gpaw_data/setups/Mo.dzp.basis.gz
    #   Number of radial functions: 11
    #   Number of spherical harmonics: 29
    #     l=0, rc=3.5469 Bohr: 4s-sz confined orbital
    #     l=0, rc=10.0469 Bohr: 5s-sz confined orbital
    #     l=1, rc=4.0781 Bohr: 4p-sz confined orbital
    #     l=1, rc=14.0938 Bohr: 5p-sz confined orbital
    #     l=2, rc=7.2031 Bohr: 4d-sz confined orbital
    #     l=0, rc=2.1250 Bohr: 4s-dz split-valence wave
    #     l=0, rc=6.1250 Bohr: 5s-dz split-valence wave
    #     l=1, rc=2.5469 Bohr: 4p-dz split-valence wave
    #     l=1, rc=8.7656 Bohr: 5p-dz split-valence wave
    #     l=2, rc=4.2344 Bohr: 4d-dz split-valence wave
    #     l=1, rc=10.0469 Bohr: p-type Gaussian polarization
    #   Number of RI-basis functions 0

  C:
    name: Carbon
    id: d60576a1f549371a163e72552ca58787
    Z: 6.0
    valence: 4
    core: 2
    charge: 0.0
    file: /home/mikei/.pyenv/versions/cemea-env/lib/python3.10/site-packages/gpaw_data/setups/C.LDA.gz
    compensation charges: {type: gauss,
                           rc: 0.20,
                           lmax: 2}
    cutoffs: {filter: 1.14,
              core: 1.14}
    projectors:
      #              energy  rcut
      - 2s(2.00)   -13.639   0.635
      - 2p(2.00)    -5.414   0.635
      -  s          13.573   0.635
      -  p          21.797   0.635
      -  d           0.000   0.635
  
    # LCAO basis set for C:
    #   Name: dzp
    #   File: /home/mikei/.pyenv/versions/cemea-env/lib/python3.10/site-packages/gpaw_data/setups/C.dzp.basis.gz
    #   Number of radial functions: 5
    #   Number of spherical harmonics: 13
    #     l=0, rc=5.5469 Bohr: 2s-sz confined orbital
    #     l=1, rc=6.6719 Bohr: 2p-sz confined orbital
    #     l=0, rc=3.0312 Bohr: 2s-dz split-valence wave
    #     l=1, rc=3.7500 Bohr: 2p-dz split-valence wave
    #     l=2, rc=6.6719 Bohr: d-type Gaussian polarization
    #   Number of RI-basis functions 0

Reference energy: -5971633.980165  # eV

Spin-paired calculation

Convergence criteria:
 Maximum [total energy] change in last 3 cyles: 1e-05 eV / valence electron
 Maximum integral of absolute [dens]ity change: 0.0001 electrons / valence electron
 Maximum integral of absolute [eigenst]ate change: 1e-05 eV^2 / valence electron
 Maximum number of scf [iter]ations: 333
 (Square brackets indicate name in SCF output, whereas a 'c' in
 the SCF output indicates the quantity has converged.)

Symmetries present (total): 2

  ( 1  0  0)  ( 1  0  0)
  ( 0  1  0)  ( 0 -1  0)
  ( 0  0  1)  ( 0  0  1)

16 k-points: 4 x 4 x 1 Monkhorst-Pack grid
4 k-points in the irreducible part of the Brillouin zone
       k-points in crystal coordinates                weights
   0:     0.12500000    0.12500000    0.00000000          4/16
   1:     0.12500000    0.37500000    0.00000000          4/16
   2:     0.37500000    0.12500000    0.00000000          4/16
   3:     0.37500000    0.37500000    0.00000000          4/16

Wave functions: LCAO
  Diagonalizer: Serial LAPACK
  Atomic Correction: dense with blas
  Data-type: complex
 

Occupation numbers: Fermi-Dirac:
  width: 0.1000  # eV
 

Eigensolver
   LCAO using direct dense diagonalizer 

Densities:
  Coarse grid: 276*60*92 grid
  Fine grid: 552*120*184 grid
  Total Charge: 0.000000 

Density mixing:
  Method: separate
  Backend: pulay
  Linear mixing parameter: 0.05
  old densities: 5
  Damping of long wavelength oscillations: 50 

Hamiltonian:
  XC and Coulomb potentials evaluated on a 552*120*184 grid
  Using the LDA Exchange-Correlation functional
  Interpolation: tri-quintic (5. degree polynomial)
  Poisson solver: FastPoissonSolver using
    Stencil: 6*3+1=19 point O(h^6) finite-difference Laplacian
    FFT axes: [np.int64(0), np.int64(1), np.int64(2)]
    FST axes: []
 

Memory estimate:
  Process memory now: 2223.90 MiB
  Calculator: 2055.93 MiB
    Density: 704.87 MiB
      Arrays: 302.21 MiB
      Localized functions: 286.42 MiB
      Mixer: 116.24 MiB
    Hamiltonian: 216.17 MiB
      Arrays: 197.60 MiB
      XC: 0.00 MiB
      Poisson: 0.00 MiB
      vbar: 18.57 MiB
    Wavefunctions: 1134.89 MiB
      C [qnM]: 63.27 MiB
      S, T [2 x qmm]: 467.03 MiB
      P [aqMi]: 10.16 MiB
      BasisFunctions: 594.42 MiB
      Eigensolver: 0.00 MiB

Total number of cores used: 1

Number of atoms: 84
Number of atomic orbitals: 1956
Number of bands in calculation: 530
Number of valence electrons: 876
Bands to converge: occupied

... initialized

Initializing position-dependent things.

Density initialized from atomic densities
         .--------------------------------------------------------------------------------------------------------------------------------------.  
        /|                                                                                                                                      |  
       / |                                                                                                                                      |  
      /  |                                                                                                                                      |  
     /   |                                                                                                                                      |  
    /    |                                                                                                                                      |  
   /     |                                                                                                                                      |  
  /      |                                                                                                                                      |  
 *       |                                                                                                                                      |  
 |       |                                                                                                                                      |  
 |       |                                                                                                                                      |  
 |       |                      Mo        Mo        Mo         Mo        Mo        Mo        Mo        Mo        Mo                             |  
 |       |                                                                                                                                      |  
 |       |                                                                                                                                      |  
 |       |                    MoC       MoC       MoC       Mo C      Mo C      Mo C      Mo C      Mo C      Mo C         C                    |  
 |       |                          Mo        Mo        Mo        Mo        Mo        Mo         Mo        Mo        Mo                         |  
 |       |                 Mo C      Mo C      Mo C      Mo C      Mo C      Mo C      Mo C       MoC       MoC         C                       |  
 |       |                                                                                                                                      |  
 |       |                       Mo        Mo         Mo        Mo        Mo        Mo        Mo        Mo        Mo                            |  
 |       |                 C         C         C         C         C         C         C          C         C         C                         |  
 |       |                     Mo        Mo        Mo        Mo        Mo        Mo        Mo        Mo        Mo                               |  
 |       |                                                                                                                                      |  
 |       .--------------------------------------------------------------------------------------------------------------------------------------.  
 |      /                                                                                                                                      /   
 |     /                                                                                                                                      /    
 |    /                                                                                                                                      /     
 |   /                                                                                                                                      /      
 |  /                                                                                                                                      /       
 | /                                                                                                                                      /        
 |/                                                                                                                                      /         
 *--------------------------------------------------------------------------------------------------------------------------------------*          

Atomic positions and initial magnetic moments

Positions:
   0 Mo    10.060000    2.060000   10.060000    ( 0.0000,  0.0000,  0.0000)
   1 C     10.060000    2.060000    8.000000    ( 0.0000,  0.0000,  0.0000)
   2 Mo    10.060000    6.180000   10.060000    ( 0.0000,  0.0000,  0.0000)
   3 C     10.060000    6.180000    8.000000    ( 0.0000,  0.0000,  0.0000)
   4 Mo    10.060000   10.300000   10.060000    ( 0.0000,  0.0000,  0.0000)
   5 C     10.060000   10.300000    8.000000    ( 0.0000,  0.0000,  0.0000)
   6 Mo    12.120000    0.000000    8.000000    ( 0.0000,  0.0000,  0.0000)
   7 Mo    14.180000    2.060000   10.060000    ( 0.0000,  0.0000,  0.0000)
   8 C     14.180000    2.060000    8.000000    ( 0.0000,  0.0000,  0.0000)
   9 Mo    12.120000    4.120000    8.000000    ( 0.0000,  0.0000,  0.0000)
  10 Mo    14.180000    6.180000   10.060000    ( 0.0000,  0.0000,  0.0000)
  11 C     14.180000    6.180000    8.000000    ( 0.0000,  0.0000,  0.0000)
  12 Mo    12.120000    8.240000    8.000000    ( 0.0000,  0.0000,  0.0000)
  13 Mo    14.180000   10.300000   10.060000    ( 0.0000,  0.0000,  0.0000)
  14 C     14.180000   10.300000    8.000000    ( 0.0000,  0.0000,  0.0000)
  15 Mo    16.240000    0.000000    8.000000    ( 0.0000,  0.0000,  0.0000)
  16 Mo    18.300000    2.060000   10.060000    ( 0.0000,  0.0000,  0.0000)
  17 C     18.300000    2.060000    8.000000    ( 0.0000,  0.0000,  0.0000)
  18 Mo    16.240000    4.120000    8.000000    ( 0.0000,  0.0000,  0.0000)
  19 Mo    18.300000    6.180000   10.060000    ( 0.0000,  0.0000,  0.0000)
  20 C     18.300000    6.180000    8.000000    ( 0.0000,  0.0000,  0.0000)
  21 Mo    16.240000    8.240000    8.000000    ( 0.0000,  0.0000,  0.0000)
  22 Mo    18.300000   10.300000   10.060000    ( 0.0000,  0.0000,  0.0000)
  23 C     18.300000   10.300000    8.000000    ( 0.0000,  0.0000,  0.0000)
  24 Mo    20.360000    0.000000    8.000000    ( 0.0000,  0.0000,  0.0000)
  25 Mo    22.420000    2.060000   10.060000    ( 0.0000,  0.0000,  0.0000)
  26 C     22.420000    2.060000    8.000000    ( 0.0000,  0.0000,  0.0000)
  27 Mo    20.360000    4.120000    8.000000    ( 0.0000,  0.0000,  0.0000)
  28 Mo    22.420000    6.180000   10.060000    ( 0.0000,  0.0000,  0.0000)
  29 C     22.420000    6.180000    8.000000    ( 0.0000,  0.0000,  0.0000)
  30 Mo    20.360000    8.240000    8.000000    ( 0.0000,  0.0000,  0.0000)
  31 Mo    22.420000   10.300000   10.060000    ( 0.0000,  0.0000,  0.0000)
  32 C     22.420000   10.300000    8.000000    ( 0.0000,  0.0000,  0.0000)
  33 Mo    24.480000    0.000000    8.000000    ( 0.0000,  0.0000,  0.0000)
  34 Mo    26.540000    2.060000   10.060000    ( 0.0000,  0.0000,  0.0000)
  35 C     26.540000    2.060000    8.000000    ( 0.0000,  0.0000,  0.0000)
  36 Mo    24.480000    4.120000    8.000000    ( 0.0000,  0.0000,  0.0000)
  37 Mo    26.540000    6.180000   10.060000    ( 0.0000,  0.0000,  0.0000)
  38 C     26.540000    6.180000    8.000000    ( 0.0000,  0.0000,  0.0000)
  39 Mo    24.480000    8.240000    8.000000    ( 0.0000,  0.0000,  0.0000)
  40 Mo    26.540000   10.300000   10.060000    ( 0.0000,  0.0000,  0.0000)
  41 C     26.540000   10.300000    8.000000    ( 0.0000,  0.0000,  0.0000)
  42 Mo    28.600000    0.000000    8.000000    ( 0.0000,  0.0000,  0.0000)
  43 Mo    30.660000    2.060000   10.060000    ( 0.0000,  0.0000,  0.0000)
  44 C     30.660000    2.060000    8.000000    ( 0.0000,  0.0000,  0.0000)
  45 Mo    28.600000    4.120000    8.000000    ( 0.0000,  0.0000,  0.0000)
  46 Mo    30.660000    6.180000   10.060000    ( 0.0000,  0.0000,  0.0000)
  47 C     30.660000    6.180000    8.000000    ( 0.0000,  0.0000,  0.0000)
  48 Mo    28.600000    8.240000    8.000000    ( 0.0000,  0.0000,  0.0000)
  49 Mo    30.660000   10.300000   10.060000    ( 0.0000,  0.0000,  0.0000)
  50 C     30.660000   10.300000    8.000000    ( 0.0000,  0.0000,  0.0000)
  51 Mo    32.720000    0.000000    8.000000    ( 0.0000,  0.0000,  0.0000)
  52 Mo    34.780000    2.060000   10.060000    ( 0.0000,  0.0000,  0.0000)
  53 C     34.780000    2.060000    8.000000    ( 0.0000,  0.0000,  0.0000)
  54 Mo    32.720000    4.120000    8.000000    ( 0.0000,  0.0000,  0.0000)
  55 Mo    34.780000    6.180000   10.060000    ( 0.0000,  0.0000,  0.0000)
  56 C     34.780000    6.180000    8.000000    ( 0.0000,  0.0000,  0.0000)
  57 Mo    32.720000    8.240000    8.000000    ( 0.0000,  0.0000,  0.0000)
  58 Mo    34.780000   10.300000   10.060000    ( 0.0000,  0.0000,  0.0000)
  59 C     34.780000   10.300000    8.000000    ( 0.0000,  0.0000,  0.0000)
  60 Mo    36.840000    0.000000    8.000000    ( 0.0000,  0.0000,  0.0000)
  61 Mo    38.900000    2.060000   10.060000    ( 0.0000,  0.0000,  0.0000)
  62 C     38.900000    2.060000    8.000000    ( 0.0000,  0.0000,  0.0000)
  63 Mo    36.840000    4.120000    8.000000    ( 0.0000,  0.0000,  0.0000)
  64 Mo    38.900000    6.180000   10.060000    ( 0.0000,  0.0000,  0.0000)
  65 C     38.900000    6.180000    8.000000    ( 0.0000,  0.0000,  0.0000)
  66 Mo    36.840000    8.240000    8.000000    ( 0.0000,  0.0000,  0.0000)
  67 Mo    38.900000   10.300000   10.060000    ( 0.0000,  0.0000,  0.0000)
  68 C     38.900000   10.300000    8.000000    ( 0.0000,  0.0000,  0.0000)
  69 Mo    40.960000    0.000000    8.000000    ( 0.0000,  0.0000,  0.0000)
  70 Mo    43.020000    2.060000   10.060000    ( 0.0000,  0.0000,  0.0000)
  71 C     43.020000    2.060000    8.000000    ( 0.0000,  0.0000,  0.0000)
  72 Mo    40.960000    4.120000    8.000000    ( 0.0000,  0.0000,  0.0000)
  73 Mo    43.020000    6.180000   10.060000    ( 0.0000,  0.0000,  0.0000)
  74 C     43.020000    6.180000    8.000000    ( 0.0000,  0.0000,  0.0000)
  75 Mo    40.960000    8.240000    8.000000    ( 0.0000,  0.0000,  0.0000)
  76 Mo    43.020000   10.300000   10.060000    ( 0.0000,  0.0000,  0.0000)
  77 C     43.020000   10.300000    8.000000    ( 0.0000,  0.0000,  0.0000)
  78 Mo    45.080000    0.000000    8.000000    ( 0.0000,  0.0000,  0.0000)
  79 C     47.140000    2.060000    8.000000    ( 0.0000,  0.0000,  0.0000)
  80 Mo    45.080000    4.120000    8.000000    ( 0.0000,  0.0000,  0.0000)
  81 C     47.140000    6.180000    8.000000    ( 0.0000,  0.0000,  0.0000)
  82 Mo    45.080000    8.240000    8.000000    ( 0.0000,  0.0000,  0.0000)
  83 C     47.140000   10.300000    8.000000    ( 0.0000,  0.0000,  0.0000)

Unit cell:
           periodic     x           y           z      points  spacing
  1. axis:    yes   55.140000    0.000000    0.000000   276     0.1998
  2. axis:    yes    0.000000   12.360000    0.000000    60     0.2060
  3. axis:    yes    0.000000    0.000000   18.060000    92     0.1963

  Lengths:  55.140000  12.360000  18.060000
  Angles:   90.000000  90.000000  90.000000

Effective grid spacing dv^(1/3) = 0.2007

     iter     time        total  log10-change:
                         energy   eigst   dens
iter:   1 19:04:25  -661.859421        c
iter:   2 19:05:09  -940.731559        c -0.84
iter:   3 19:05:54 -1089.763872        c -0.66
iter:   4 19:06:34 -1323.437850        c -0.62
iter:   5 19:07:15  -615.241087        c -0.54
iter:   6 19:08:00  -591.505488        c -0.93
iter:   7 19:08:48  -585.395680        c -1.00
iter:   8 19:09:41  -597.384499        c -1.01
iter:   9 19:10:29  -717.458952        c -0.95
iter:  10 19:11:13  -629.165840        c -0.78
iter:  11 19:11:56  -575.254386        c -0.89
iter:  12 19:12:40  -559.559454        c -1.04
iter:  13 19:13:23  -558.724508        c -1.13
iter:  14 19:14:04  -551.023255        c -1.13
iter:  15 19:14:48  -705.249073        c -1.22
iter:  16 19:15:31  -560.224833        c -0.82
iter:  17 19:16:14  -545.382431        c -1.13
iter:  18 19:16:54  -543.376424        c -1.28
iter:  19 19:17:37  -580.779030        c -1.32
iter:  20 19:18:19  -598.470949        c -1.03
iter:  21 19:19:07  -555.980110        c -0.96
iter:  22 19:19:50  -541.229907        c -1.14
iter:  23 19:20:30  -537.972611        c -1.39
iter:  24 19:21:18  -536.949211        c -1.46
iter:  25 19:21:59  -537.407860        c -1.52
iter:  26 19:22:39  -539.845722        c -1.49
iter:  27 19:23:20  -610.082415        c -1.41
iter:  28 19:24:00  -535.977422        c -0.90
iter:  29 19:24:49  -537.380625        c -1.58
iter:  30 19:25:30  -542.857365        c -1.53
iter:  31 19:26:10  -539.105343        c -1.34
iter:  32 19:26:54  -535.663705        c -1.44
iter:  33 19:27:36  -575.541241        c -1.64
iter:  34 19:28:16  -534.717298        c -1.00
iter:  35 19:29:00  -535.012550        c -1.77
iter:  36 19:29:43  -534.653361        c -1.72
iter:  37 19:30:24  -538.617974        c -1.80
iter:  38 19:31:04  -535.600352        c -1.51
iter:  39 19:31:44  -536.906526        c -1.67
iter:  40 19:32:31  -537.726993        c -1.58
iter:  41 19:33:13  -534.609765        c -1.52
iter:  42 19:33:54  -534.145548        c -1.89
iter:  43 19:34:35  -534.050763        c -2.00
iter:  44 19:35:16  -534.196727        c -2.05
iter:  45 19:35:56  -536.757635        c -1.99
iter:  46 19:36:36  -534.264204        c -1.58
iter:  47 19:37:18  -534.109460        c -1.93
iter:  48 19:37:58  -534.073866        c -2.03
iter:  49 19:38:44  -533.866370        c -2.02
iter:  50 19:39:27  -533.868332        c -2.22
iter:  51 19:40:15  -533.936275        c -2.21
iter:  52 19:40:56  -534.876861        c -2.15
iter:  53 19:41:42  -534.081016        c -1.81
iter:  54 19:42:23  -535.484987        c -2.05
iter:  55 19:43:03  -535.168560        c -1.70
iter:  56 19:43:46  -533.875122        c -1.72
iter:  57 19:44:34  -533.843312        c -2.33
iter:  58 19:45:14  -533.841164        c -2.33
iter:  59 19:45:58  -533.990377        c -2.39
iter:  60 19:46:44  -534.163021        c -2.12
iter:  61 19:47:27  -536.195982        c -1.99
iter:  62 19:48:08  -533.845779        c -1.63
iter:  63 19:48:52  -533.845573        c -2.31
iter:  64 19:49:32  -533.817488        c -2.37
iter:  65 19:50:16  -533.849862        c -2.39
iter:  66 19:50:59  -533.884281        c -2.41
iter:  67 19:51:42  -534.210578        c -2.27
iter:  68 19:52:26  -534.144631        c -1.95
iter:  69 19:53:07  -533.880377        c -2.04
iter:  70 19:53:47  -533.897221        c -2.33
iter:  71 19:54:30  -533.806737        c -2.38
iter:  72 19:55:13  -533.813383        c -2.53
iter:  73 19:55:59  -533.820595        c -2.57
iter:  74 19:56:43  -534.377893        c -2.58
iter:  75 19:57:27  -533.892000        c -1.92
iter:  76 19:58:08  -533.809906        c -2.34
iter:  77 19:58:48  -533.806398        c -2.47
iter:  78 19:59:34  -533.788100        c -2.57
iter:  79 20:00:17  -533.786107        c -2.74
iter:  80 20:01:02  -534.524498        c -2.74
iter:  81 20:01:46  -533.808353        c -1.93
iter:  82 20:02:28  -533.927584        c -2.51
iter:  83 20:03:09  -533.815726        c -2.33
iter:  84 20:03:51  -533.793768        c -2.52
iter:  85 20:04:36  -533.787650        c -2.69
iter:  86 20:05:17  -533.917537        c -2.87
iter:  87 20:05:59  -533.790523        c -2.34
iter:  88 20:06:48  -533.789692        c -2.69
iter:  89 20:07:28  -533.797929c       c -2.93
iter:  90 20:08:11  -533.793923c       c -2.58
iter:  91 20:08:59  -533.787020        c -2.78
iter:  92 20:09:39  -533.782582        c -2.92
iter:  93 20:10:23  -533.911739        c -2.83
iter:  94 20:11:09  -533.790765        c -2.34
iter:  95 20:11:51  -533.785684        c -2.92
iter:  96 20:12:35  -533.811094        c -2.85
iter:  97 20:13:15  -533.784791        c -2.71
iter:  98 20:13:56  -533.797155        c -2.95
iter:  99 20:14:47  -533.792686        c -2.78
iter: 100 20:15:36  -533.789637c       c -2.98
iter: 101 20:16:27  -533.784219c       c -2.85
iter: 102 20:17:09  -533.809583        c -2.79
iter: 103 20:17:54  -533.782917        c -2.73
iter: 104 20:18:37  -533.784021        c -3.10
iter: 105 20:19:21  -533.783025c       c -2.88
iter: 106 20:20:06  -533.787044c       c -3.02
iter: 107 20:20:52  -533.802718        c -2.95
iter: 108 20:21:37  -533.780964        c -2.79
iter: 109 20:22:26  -533.791975        c -2.88
iter: 110 20:23:12  -533.803116        c -3.04
iter: 111 20:23:57  -533.789545        c -2.78
iter: 112 20:24:43  -533.788823        c -3.12
iter: 113 20:25:30  -533.787256c       c -3.16
iter: 114 20:26:16  -533.788520c       c -2.86
iter: 115 20:26:59  -533.780211c       c -3.23
iter: 116 20:27:42  -533.783802c       c -2.90
iter: 117 20:28:23  -533.784451c       c -2.96
iter: 118 20:29:08  -533.781439c       c -3.15
iter: 119 20:29:51  -533.789403c       c -3.27
iter: 120 20:30:31  -533.782836c       c -3.08
iter: 121 20:31:14  -533.794122        c -3.46
iter: 122 20:32:00  -533.784499        c -3.04
iter: 123 20:32:43  -533.783087        c -3.41
iter: 124 20:33:26  -533.785101c       c -3.31
iter: 125 20:34:09  -533.781754c       c -3.51
iter: 126 20:34:53  -533.782967c       c -3.22
iter: 127 20:35:37  -533.783040c       c -3.57
iter: 128 20:36:23  -533.783317c       c -3.50
iter: 129 20:37:04  -533.786496c       c -3.38
iter: 130 20:37:47  -533.781209c       c -3.25
iter: 131 20:38:30  -533.791441        c -3.45
iter: 132 20:39:14  -533.784434        c -3.08
iter: 133 20:39:54  -533.783227c       c -3.55
iter: 134 20:40:41  -533.783204c       c -3.51
iter: 135 20:41:27  -533.783869c       c -3.64
iter: 136 20:42:10  -533.783078c       c -3.56
iter: 137 20:42:56  -533.786055c       c -3.61
iter: 138 20:43:37  -533.781900c       c -3.52
iter: 139 20:44:19  -533.783826c       c -3.54
iter: 140 20:45:03  -533.784284c       c -3.54
iter: 141 20:45:43  -533.782718c       c -3.52
iter: 142 20:46:24  -533.783252c       c -3.60
iter: 143 20:47:06  -533.781793c       c -3.73
iter: 144 20:47:49  -533.784420c       c -3.48
iter: 145 20:48:32  -533.783486c       c -3.72
iter: 146 20:49:14  -533.782920c       c -3.61
iter: 147 20:49:56  -533.783655c       c -3.57
iter: 148 20:50:43  -533.783222c       c -3.76
iter: 149 20:51:26  -533.784814c       c -3.79
iter: 150 20:52:08  -533.782444c       c -3.65
iter: 151 20:52:49  -533.782930c       c -3.74
iter: 152 20:53:32  -533.783934c       c -3.61
iter: 153 20:54:16  -533.783003c       c -3.68
iter: 154 20:54:57  -533.783357c       c -3.78
iter: 155 20:55:44  -533.781850c       c -3.82
iter: 156 20:56:25  -533.784104c       c -3.69
iter: 157 20:57:12  -533.784042c       c -3.86
iter: 158 20:57:55  -533.782881c       c -3.73
iter: 159 20:58:38  -533.783369c       c -3.68
iter: 160 20:59:18  -533.783186c       c -3.89
iter: 161 20:59:58  -533.784787c       c -3.82
iter: 162 21:00:47  -533.782364c       c -3.70
iter: 163 21:01:34  -533.782428c       c -3.82
iter: 164 21:02:17  -533.783654c       c -3.68
iter: 165 21:03:04  -533.783200c       c -3.84
iter: 166 21:03:47  -533.783223c       c -3.98
iter: 167 21:04:33  -533.782236c       c -3.94
iter: 168 21:05:22  -533.784212c       c -3.86
iter: 169 21:06:08  -533.784329c       c -3.88
iter: 170 21:06:57  -533.782909c       c -3.75
iter: 171 21:07:46  -533.783212c       c -3.82
iter: 172 21:08:35  -533.783147c       c -4.04c

Converged after 172 iterations.

Dipole moment: (-2.930274, -37.563461, 4.605259) |e|*Ang

Energy contributions relative to reference atoms: (reference = -5971633.980165)

Kinetic:       -1429.642050
Potential:     +975.106219
External:        +0.000000
XC:             -82.583448
Entropy (-ST):   -7.610703
Local:           +7.141484
SIC:             +0.000000
--------------------------
Free energy:   -537.588499
Extrapolated:  -533.783147

Showing only first 2 kpts
 Kpt  Band  Eigenvalues  Occupancy
  0   436     -2.98909    0.95519
  0   437     -2.96905    0.85593
  0   438     -2.95606    0.79301
  0   439     -2.93741    0.70569

  1   436     -2.97793    0.89970
  1   437     -2.95392    0.78280
  1   438     -2.94970    0.76279
  1   439     -2.94887    0.75890


Fermi level: -2.99806

No gap
No difference between direct/indirect transitions
Timing:                              incl.     excl.
-----------------------------------------------------------
Basic WFS set positions:             0.002     0.002   0.0% |
Basis functions set positions:       0.289     0.289   0.0% |
LCAO WFS Initialize:                 1.865     0.195   0.0% |
 Hamiltonian:                        1.670     0.000   0.0% |
  Atomic:                            0.242     0.003   0.0% |
   XC Correction:                    0.239     0.239   0.0% |
  Calculate atomic Hamiltonians:     0.036     0.036   0.0% |
  Communicate:                       0.000     0.000   0.0% |
  Hartree integrate/restrict:        0.102     0.102   0.0% |
  Initialize Hamiltonian:            0.000     0.000   0.0% |
  Poisson:                           0.978     0.061   0.0% |
   Communicate from 1D:              0.094     0.094   0.0% |
   Communicate from 2D:              0.094     0.094   0.0% |
   Communicate to 1D:                0.061     0.061   0.0% |
   Communicate to 2D:                0.094     0.094   0.0% |
   FFT 1D:                           0.134     0.134   0.0% |
   FFT 2D:                           0.438     0.438   0.0% |
  XC 3D grid:                        0.295     0.295   0.0% |
  vbar:                              0.017     0.017   0.0% |
P tci:                               1.893     1.893   0.0% |
SCF-cycle:                        7470.764     0.200   0.0% |
 Density:                         3458.986     0.003   0.0% |
  Atomic density matrices:           3.118     3.118   0.0% |
  Mix:                              34.773    34.773   0.5% |
  Multipole moments:                 0.074     0.074   0.0% |
  Normalize:                         0.213     0.213   0.0% |
  Pseudo density:                 3420.803     0.594   0.0% |
   Calculate density matrix:        36.763    36.763   0.5% |
   Construct density:             3377.641  3377.641  45.1% |-----------------|
   Symmetrize density:               5.805     5.805   0.1% |
 Hamiltonian:                      283.640     0.009   0.0% |
  Atomic:                           41.401     0.449   0.0% |
   XC Correction:                   40.952    40.952   0.5% |
  Calculate atomic Hamiltonians:     6.143     6.143   0.1% |
  Communicate:                       0.001     0.001   0.0% |
  Hartree integrate/restrict:       17.506    17.506   0.2% |
  Poisson:                         165.157     9.330   0.1% |
   Communicate from 1D:             16.149    16.149   0.2% |
   Communicate from 2D:             16.245    16.245   0.2% |
   Communicate to 1D:               10.603    10.603   0.1% |
   Communicate to 2D:               16.144    16.144   0.2% |
   FFT 1D:                          23.014    23.014   0.3% |
   FFT 2D:                          73.672    73.672   1.0% |
  XC 3D grid:                       51.859    51.859   0.7% |
  vbar:                              1.564     1.564   0.0% |
 LCAO eigensolver:                3727.938     5.780   0.1% |
  Calculate projections:            78.704    78.704   1.1% |
  DenseAtomicCorrection:          1439.611  1439.611  19.2% |-------|
  Distribute overlap matrix:        15.667    15.667   0.2% |
  Orbital Layouts:                1163.345  1163.345  15.5% |-----|
  Potential matrix:                990.252   990.252  13.2% |----|
  Sum over cells:                   34.579    34.579   0.5% |
ST tci:                              0.696     0.696   0.0% |
Set symmetry:                        0.001     0.001   0.0% |
TCI: Evaluate splines:               0.137     0.137   0.0% |
mktci:                               0.010     0.010   0.0% |
Other:                              17.501    17.501   0.2% |
-----------------------------------------------------------
Total:                                      7493.157 100.0%

Memory usage: 3.73 GiB
Date: Fri Feb 20 21:08:35 2026
