
  ___ ___ ___ _ _ _  
 |   |   |_  | | | | 
 | | | | | . | | | | 
 |__ |  _|___|_____|  25.7.0
 |___|_|             

User:   mikei@Z790-AORUS-ELITE-AX
Date:   Fri Feb 20 21:08:35 2026
Arch:   x86_64
Pid:    89048
CWD:    /home/mikei/Dokumenty/code/cemea/ocx
Python: 3.10.16
gpaw:   /home/mikei/.pyenv/versions/cemea-env/lib/python3.10/site-packages/gpaw
_gpaw:  /home/mikei/.pyenv/versions/cemea-env/lib/python3.10/site-packages/
        _gpaw.cpython-310-x86_64-linux-gnu.so
ase:    /home/mikei/.pyenv/versions/cemea-env/lib/python3.10/site-packages/ase (version 3.27.0)
numpy:  /home/mikei/.pyenv/versions/cemea-env/lib/python3.10/site-packages/numpy (version 2.2.6)
scipy:  /home/mikei/.pyenv/versions/cemea-env/lib/python3.10/site-packages/scipy (version 1.15.3)
libxc:  2.x.y
units:  Angstrom and eV
cores: 1
OpenMP: False
OMP_NUM_THREADS: 1

Input parameters:
  basis: dzp
  convergence: {density: 0.0001,
                eigenstates: 1e-05,
                energy: 1e-05}
  kpts: [4 4 1]
  mode: lcao

System changes: positions, numbers, cell, pbc, initial_charges, initial_magmoms 

Initialize ...

species:
  Mo:
    name: Molybdenum
    id: ac24daaf086600a00ce6d19a74574df1
    Z: 42.0
    valence: 14
    core: 28
    charge: 0.0
    file: /home/mikei/.pyenv/versions/cemea-env/lib/python3.10/site-packages/gpaw_data/setups/Mo.LDA.gz
    compensation charges: {type: gauss,
                           rc: 0.38,
                           lmax: 2}
    cutoffs: {filter: 2.16,
              core: 1.42}
    projectors:
      #              energy  rcut
      - 4s(2.00)   -64.384   1.238
      - 5s(1.00)    -4.319   1.238
      - 4p(6.00)   -38.595   1.296
      - 5p(0.00)    -1.161   1.296
      - 4d(5.00)    -3.933   1.296
      -  d          23.278   1.296
  
    # LCAO basis set for Mo:
    #   Name: dzp
    #   File: /home/mikei/.pyenv/versions/cemea-env/lib/python3.10/site-packages/gpaw_data/setups/Mo.dzp.basis.gz
    #   Number of radial functions: 11
    #   Number of spherical harmonics: 29
    #     l=0, rc=3.5469 Bohr: 4s-sz confined orbital
    #     l=0, rc=10.0469 Bohr: 5s-sz confined orbital
    #     l=1, rc=4.0781 Bohr: 4p-sz confined orbital
    #     l=1, rc=14.0938 Bohr: 5p-sz confined orbital
    #     l=2, rc=7.2031 Bohr: 4d-sz confined orbital
    #     l=0, rc=2.1250 Bohr: 4s-dz split-valence wave
    #     l=0, rc=6.1250 Bohr: 5s-dz split-valence wave
    #     l=1, rc=2.5469 Bohr: 4p-dz split-valence wave
    #     l=1, rc=8.7656 Bohr: 5p-dz split-valence wave
    #     l=2, rc=4.2344 Bohr: 4d-dz split-valence wave
    #     l=1, rc=10.0469 Bohr: p-type Gaussian polarization
    #   Number of RI-basis functions 0

  C:
    name: Carbon
    id: d60576a1f549371a163e72552ca58787
    Z: 6.0
    valence: 4
    core: 2
    charge: 0.0
    file: /home/mikei/.pyenv/versions/cemea-env/lib/python3.10/site-packages/gpaw_data/setups/C.LDA.gz
    compensation charges: {type: gauss,
                           rc: 0.20,
                           lmax: 2}
    cutoffs: {filter: 1.14,
              core: 1.14}
    projectors:
      #              energy  rcut
      - 2s(2.00)   -13.639   0.635
      - 2p(2.00)    -5.414   0.635
      -  s          13.573   0.635
      -  p          21.797   0.635
      -  d           0.000   0.635
  
    # LCAO basis set for C:
    #   Name: dzp
    #   File: /home/mikei/.pyenv/versions/cemea-env/lib/python3.10/site-packages/gpaw_data/setups/C.dzp.basis.gz
    #   Number of radial functions: 5
    #   Number of spherical harmonics: 13
    #     l=0, rc=5.5469 Bohr: 2s-sz confined orbital
    #     l=1, rc=6.6719 Bohr: 2p-sz confined orbital
    #     l=0, rc=3.0312 Bohr: 2s-dz split-valence wave
    #     l=1, rc=3.7500 Bohr: 2p-dz split-valence wave
    #     l=2, rc=6.6719 Bohr: d-type Gaussian polarization
    #   Number of RI-basis functions 0

  H:
    name: Hydrogen
    id: 4766778ce56282eaa64abeb28b7c1de3
    Z: 1.0
    valence: 1
    core: 0
    charge: 0.0
    file: /home/mikei/.pyenv/versions/cemea-env/lib/python3.10/site-packages/gpaw_data/setups/H.LDA.gz
    compensation charges: {type: gauss,
                           rc: 0.15,
                           lmax: 2}
    cutoffs: {filter: 0.85,
              core: 0.53}
    projectors:
      #              energy  rcut
      - 1s(1.00)    -6.353   0.476
      -  s          20.858   0.476
      -  p           0.000   0.476
  
    # LCAO basis set for H:
    #   Name: dzp
    #   File: /home/mikei/.pyenv/versions/cemea-env/lib/python3.10/site-packages/gpaw_data/setups/H.dzp.basis.gz
    #   Number of radial functions: 3
    #   Number of spherical harmonics: 5
    #     l=0, rc=6.4219 Bohr: 1s-sz confined orbital
    #     l=0, rc=3.6094 Bohr: 1s-dz split-valence wave
    #     l=1, rc=6.4219 Bohr: p-type Gaussian polarization
    #   Number of RI-basis functions 0

Reference energy: -5971646.109123  # eV

Spin-paired calculation

Convergence criteria:
 Maximum [total energy] change in last 3 cyles: 1e-05 eV / valence electron
 Maximum integral of absolute [dens]ity change: 0.0001 electrons / valence electron
 Maximum integral of absolute [eigenst]ate change: 1e-05 eV^2 / valence electron
 Maximum number of scf [iter]ations: 333
 (Square brackets indicate name in SCF output, whereas a 'c' in
 the SCF output indicates the quantity has converged.)

Symmetries present (total): 1

  ( 1  0  0)
  ( 0  1  0)
  ( 0  0  1)

16 k-points: 4 x 4 x 1 Monkhorst-Pack grid
8 k-points in the irreducible part of the Brillouin zone
       k-points in crystal coordinates                weights
   0:     0.12500000   -0.37500000    0.00000000          2/16
   1:     0.12500000   -0.12500000    0.00000000          2/16
   2:     0.12500000    0.12500000    0.00000000          2/16
   3:     0.12500000    0.37500000    0.00000000          2/16
   4:     0.37500000   -0.37500000    0.00000000          2/16
   5:     0.37500000   -0.12500000    0.00000000          2/16
   6:     0.37500000    0.12500000    0.00000000          2/16
   7:     0.37500000    0.37500000    0.00000000          2/16

Wave functions: LCAO
  Diagonalizer: Serial LAPACK
  Atomic Correction: dense with blas
  Data-type: complex
 

Occupation numbers: Fermi-Dirac:
  width: 0.1000  # eV
 

Eigensolver
   LCAO using direct dense diagonalizer 

Densities:
  Coarse grid: 276*60*92 grid
  Fine grid: 552*120*184 grid
  Total Charge: 0.000000 

Density mixing:
  Method: separate
  Backend: pulay
  Linear mixing parameter: 0.05
  old densities: 5
  Damping of long wavelength oscillations: 50 

Hamiltonian:
  XC and Coulomb potentials evaluated on a 552*120*184 grid
  Using the LDA Exchange-Correlation functional
  Interpolation: tri-quintic (5. degree polynomial)
  Poisson solver: FastPoissonSolver using
    Stencil: 6*3+1=19 point O(h^6) finite-difference Laplacian
    FFT axes: [np.int64(0), np.int64(1), np.int64(2)]
    FST axes: []
 

Memory estimate:
  Process memory now: 3817.48 MiB
  Calculator: 2602.79 MiB
    Density: 705.12 MiB
      Arrays: 302.21 MiB
      Localized functions: 286.67 MiB
      Mixer: 116.24 MiB
    Hamiltonian: 216.19 MiB
      Arrays: 197.60 MiB
      XC: 0.00 MiB
      Poisson: 0.00 MiB
      vbar: 18.59 MiB
    Wavefunctions: 1681.48 MiB
      C [qnM]: 127.11 MiB
      S, T [2 x qmm]: 938.85 MiB
      P [aqMi]: 20.45 MiB
      BasisFunctions: 595.07 MiB
      Eigensolver: 0.00 MiB

Total number of cores used: 1

Number of atoms: 85
Number of atomic orbitals: 1961
Number of bands in calculation: 531
Number of valence electrons: 877
Bands to converge: occupied

... initialized

Initializing position-dependent things.

Density initialized from atomic densities
         .--------------------------------------------------------------------------------------------------------------------------------------.  
        /|                                                                                                                                      |  
       / |                                                                                                                                      |  
      /  |                                                                                                                                      |  
     /   |                                                                                                                                      |  
    /    |                                                                                                                                      |  
   /     |                                                                                                                                      |  
  /      |                                                                                                                                      |  
 *       |                                                                                                                                      |  
 |       |                                                                                                                                      |  
 |       |                                                                                                                                      |  
 |       |                      Mo        Mo        Mo         Mo        Mo        Mo        Mo        Mo        Mo                             |  
 |       |                                                               H                                                                      |  
 |       |                                                                                                                                      |  
 |       |                    MoC       MoC       MoC       Mo C      Mo C      Mo C      Mo C      Mo C      Mo C         C                    |  
 |       |                          Mo        Mo        Mo        Mo        Mo        Mo         Mo        Mo        Mo                         |  
 |       |                 Mo C      Mo C      Mo C      Mo C      Mo C      Mo C      Mo C       MoC       MoC         C                       |  
 |       |                                                                                                                                      |  
 |       |                       Mo        Mo         Mo        Mo        Mo        Mo        Mo        Mo        Mo                            |  
 |       |                 C         C         C         C         C         C         C          C         C         C                         |  
 |       |                     Mo        Mo        Mo        Mo        Mo        Mo        Mo        Mo        Mo                               |  
 |       |                                                                                                                                      |  
 |       .--------------------------------------------------------------------------------------------------------------------------------------.  
 |      /                                                                                                                                      /   
 |     /                                                                                                                                      /    
 |    /                                                                                                                                      /     
 |   /                                                                                                                                      /      
 |  /                                                                                                                                      /       
 | /                                                                                                                                      /        
 |/                                                                                                                                      /         
 *--------------------------------------------------------------------------------------------------------------------------------------*          

Atomic positions and initial magnetic moments

Positions:
   0 Mo    10.060000    2.060000   10.060000    ( 0.0000,  0.0000,  0.0000)
   1 C     10.060000    2.060000    8.000000    ( 0.0000,  0.0000,  0.0000)
   2 Mo    10.060000    6.180000   10.060000    ( 0.0000,  0.0000,  0.0000)
   3 C     10.060000    6.180000    8.000000    ( 0.0000,  0.0000,  0.0000)
   4 Mo    10.060000   10.300000   10.060000    ( 0.0000,  0.0000,  0.0000)
   5 C     10.060000   10.300000    8.000000    ( 0.0000,  0.0000,  0.0000)
   6 Mo    12.120000    0.000000    8.000000    ( 0.0000,  0.0000,  0.0000)
   7 Mo    14.180000    2.060000   10.060000    ( 0.0000,  0.0000,  0.0000)
   8 C     14.180000    2.060000    8.000000    ( 0.0000,  0.0000,  0.0000)
   9 Mo    12.120000    4.120000    8.000000    ( 0.0000,  0.0000,  0.0000)
  10 Mo    14.180000    6.180000   10.060000    ( 0.0000,  0.0000,  0.0000)
  11 C     14.180000    6.180000    8.000000    ( 0.0000,  0.0000,  0.0000)
  12 Mo    12.120000    8.240000    8.000000    ( 0.0000,  0.0000,  0.0000)
  13 Mo    14.180000   10.300000   10.060000    ( 0.0000,  0.0000,  0.0000)
  14 C     14.180000   10.300000    8.000000    ( 0.0000,  0.0000,  0.0000)
  15 Mo    16.240000    0.000000    8.000000    ( 0.0000,  0.0000,  0.0000)
  16 Mo    18.300000    2.060000   10.060000    ( 0.0000,  0.0000,  0.0000)
  17 C     18.300000    2.060000    8.000000    ( 0.0000,  0.0000,  0.0000)
  18 Mo    16.240000    4.120000    8.000000    ( 0.0000,  0.0000,  0.0000)
  19 Mo    18.300000    6.180000   10.060000    ( 0.0000,  0.0000,  0.0000)
  20 C     18.300000    6.180000    8.000000    ( 0.0000,  0.0000,  0.0000)
  21 Mo    16.240000    8.240000    8.000000    ( 0.0000,  0.0000,  0.0000)
  22 Mo    18.300000   10.300000   10.060000    ( 0.0000,  0.0000,  0.0000)
  23 C     18.300000   10.300000    8.000000    ( 0.0000,  0.0000,  0.0000)
  24 Mo    20.360000    0.000000    8.000000    ( 0.0000,  0.0000,  0.0000)
  25 Mo    22.420000    2.060000   10.060000    ( 0.0000,  0.0000,  0.0000)
  26 C     22.420000    2.060000    8.000000    ( 0.0000,  0.0000,  0.0000)
  27 Mo    20.360000    4.120000    8.000000    ( 0.0000,  0.0000,  0.0000)
  28 Mo    22.420000    6.180000   10.060000    ( 0.0000,  0.0000,  0.0000)
  29 C     22.420000    6.180000    8.000000    ( 0.0000,  0.0000,  0.0000)
  30 Mo    20.360000    8.240000    8.000000    ( 0.0000,  0.0000,  0.0000)
  31 Mo    22.420000   10.300000   10.060000    ( 0.0000,  0.0000,  0.0000)
  32 C     22.420000   10.300000    8.000000    ( 0.0000,  0.0000,  0.0000)
  33 Mo    24.480000    0.000000    8.000000    ( 0.0000,  0.0000,  0.0000)
  34 Mo    26.540000    2.060000   10.060000    ( 0.0000,  0.0000,  0.0000)
  35 C     26.540000    2.060000    8.000000    ( 0.0000,  0.0000,  0.0000)
  36 Mo    24.480000    4.120000    8.000000    ( 0.0000,  0.0000,  0.0000)
  37 Mo    26.540000    6.180000   10.060000    ( 0.0000,  0.0000,  0.0000)
  38 C     26.540000    6.180000    8.000000    ( 0.0000,  0.0000,  0.0000)
  39 Mo    24.480000    8.240000    8.000000    ( 0.0000,  0.0000,  0.0000)
  40 Mo    26.540000   10.300000   10.060000    ( 0.0000,  0.0000,  0.0000)
  41 C     26.540000   10.300000    8.000000    ( 0.0000,  0.0000,  0.0000)
  42 Mo    28.600000    0.000000    8.000000    ( 0.0000,  0.0000,  0.0000)
  43 Mo    30.660000    2.060000   10.060000    ( 0.0000,  0.0000,  0.0000)
  44 C     30.660000    2.060000    8.000000    ( 0.0000,  0.0000,  0.0000)
  45 Mo    28.600000    4.120000    8.000000    ( 0.0000,  0.0000,  0.0000)
  46 Mo    30.660000    6.180000   10.060000    ( 0.0000,  0.0000,  0.0000)
  47 C     30.660000    6.180000    8.000000    ( 0.0000,  0.0000,  0.0000)
  48 Mo    28.600000    8.240000    8.000000    ( 0.0000,  0.0000,  0.0000)
  49 Mo    30.660000   10.300000   10.060000    ( 0.0000,  0.0000,  0.0000)
  50 C     30.660000   10.300000    8.000000    ( 0.0000,  0.0000,  0.0000)
  51 Mo    32.720000    0.000000    8.000000    ( 0.0000,  0.0000,  0.0000)
  52 Mo    34.780000    2.060000   10.060000    ( 0.0000,  0.0000,  0.0000)
  53 C     34.780000    2.060000    8.000000    ( 0.0000,  0.0000,  0.0000)
  54 Mo    32.720000    4.120000    8.000000    ( 0.0000,  0.0000,  0.0000)
  55 Mo    34.780000    6.180000   10.060000    ( 0.0000,  0.0000,  0.0000)
  56 C     34.780000    6.180000    8.000000    ( 0.0000,  0.0000,  0.0000)
  57 Mo    32.720000    8.240000    8.000000    ( 0.0000,  0.0000,  0.0000)
  58 Mo    34.780000   10.300000   10.060000    ( 0.0000,  0.0000,  0.0000)
  59 C     34.780000   10.300000    8.000000    ( 0.0000,  0.0000,  0.0000)
  60 Mo    36.840000    0.000000    8.000000    ( 0.0000,  0.0000,  0.0000)
  61 Mo    38.900000    2.060000   10.060000    ( 0.0000,  0.0000,  0.0000)
  62 C     38.900000    2.060000    8.000000    ( 0.0000,  0.0000,  0.0000)
  63 Mo    36.840000    4.120000    8.000000    ( 0.0000,  0.0000,  0.0000)
  64 Mo    38.900000    6.180000   10.060000    ( 0.0000,  0.0000,  0.0000)
  65 C     38.900000    6.180000    8.000000    ( 0.0000,  0.0000,  0.0000)
  66 Mo    36.840000    8.240000    8.000000    ( 0.0000,  0.0000,  0.0000)
  67 Mo    38.900000   10.300000   10.060000    ( 0.0000,  0.0000,  0.0000)
  68 C     38.900000   10.300000    8.000000    ( 0.0000,  0.0000,  0.0000)
  69 Mo    40.960000    0.000000    8.000000    ( 0.0000,  0.0000,  0.0000)
  70 Mo    43.020000    2.060000   10.060000    ( 0.0000,  0.0000,  0.0000)
  71 C     43.020000    2.060000    8.000000    ( 0.0000,  0.0000,  0.0000)
  72 Mo    40.960000    4.120000    8.000000    ( 0.0000,  0.0000,  0.0000)
  73 Mo    43.020000    6.180000   10.060000    ( 0.0000,  0.0000,  0.0000)
  74 C     43.020000    6.180000    8.000000    ( 0.0000,  0.0000,  0.0000)
  75 Mo    40.960000    8.240000    8.000000    ( 0.0000,  0.0000,  0.0000)
  76 Mo    43.020000   10.300000   10.060000    ( 0.0000,  0.0000,  0.0000)
  77 C     43.020000   10.300000    8.000000    ( 0.0000,  0.0000,  0.0000)
  78 Mo    45.080000    0.000000    8.000000    ( 0.0000,  0.0000,  0.0000)
  79 C     47.140000    2.060000    8.000000    ( 0.0000,  0.0000,  0.0000)
  80 Mo    45.080000    4.120000    8.000000    ( 0.0000,  0.0000,  0.0000)
  81 C     47.140000    6.180000    8.000000    ( 0.0000,  0.0000,  0.0000)
  82 Mo    45.080000    8.240000    8.000000    ( 0.0000,  0.0000,  0.0000)
  83 C     47.140000   10.300000    8.000000    ( 0.0000,  0.0000,  0.0000)
  84 H     27.937857    5.517857   11.560000    ( 0.0000,  0.0000,  0.0000)

Unit cell:
           periodic     x           y           z      points  spacing
  1. axis:    yes   55.140000    0.000000    0.000000   276     0.1998
  2. axis:    yes    0.000000   12.360000    0.000000    60     0.2060
  3. axis:    yes    0.000000    0.000000   18.060000    92     0.1963

  Lengths:  55.140000  12.360000  18.060000
  Angles:   90.000000  90.000000  90.000000

Effective grid spacing dv^(1/3) = 0.2007

     iter     time        total  log10-change:
                         energy   eigst   dens
iter:   1 21:09:42  -665.788546        c
iter:   2 21:11:00  -925.967792        c -0.84
iter:   3 21:12:17 -1106.628409        c -0.67
iter:   4 21:13:36 -1319.503472        c -0.61
iter:   5 21:15:06  -616.615108        c -0.55
iter:   6 21:16:22  -594.103999        c -0.94
iter:   7 21:17:42  -589.373998        c -1.00
iter:   8 21:18:59  -595.299671        c -1.01
iter:   9 21:20:23  -655.660278        c -0.97
iter:  10 21:21:38  -702.752535        c -0.87
iter:  11 21:23:03  -575.749106        c -0.82
iter:  12 21:24:27  -555.845534        c -1.05
iter:  13 21:25:44  -561.183613        c -1.19
iter:  14 21:27:04  -557.134854        c -1.15
iter:  15 21:28:31  -581.362611        c -1.17
iter:  16 21:29:53  -623.034402        c -1.02
iter:  17 21:31:10  -552.542216        c -0.92
iter:  18 21:32:25  -556.949756        c -1.23
iter:  19 21:33:48  -566.802615        c -1.14
iter:  20 21:35:05  -556.288285        c -1.09
iter:  21 21:36:32  -546.594578        c -1.16
iter:  22 21:37:56  -592.674141        c -1.31
iter:  23 21:39:13  -554.140965        c -1.00
iter:  24 21:40:27  -548.715747        c -1.20
iter:  25 21:41:42  -543.347793        c -1.27
iter:  26 21:43:10  -597.376017        c -1.41
iter:  27 21:44:38  -542.220744        c -0.99
iter:  28 21:45:58  -541.590053        c -1.44
iter:  29 21:47:18  -584.230043        c -1.48
iter:  30 21:48:32  -542.203004        c -1.04
iter:  31 21:49:58  -540.751458        c -1.43
iter:  32 21:51:22  -541.292224        c -1.52
iter:  33 21:52:38  -541.368480        c -1.46
iter:  34 21:54:06  -543.107658        c -1.46
iter:  35 21:55:26  -584.973149        c -1.39
iter:  36 21:56:46  -539.892172        c -1.03
iter:  37 21:58:03  -541.744781        c -1.55
iter:  38 21:59:21  -539.117520        c -1.45
iter:  39 22:00:52  -539.049602        c -1.63
iter:  40 22:02:12  -539.615781        c -1.63
iter:  41 22:03:31  -541.446512        c -1.58
iter:  42 22:04:49  -582.878967        c -1.49
iter:  43 22:06:06  -539.090101        c -1.03
iter:  44 22:07:30  -541.149779        c -1.64
iter:  45 22:08:45  -540.165892        c -1.49
iter:  46 22:10:04  -538.324805        c -1.55
iter:  47 22:11:22  -546.470873        c -1.78
iter:  48 22:12:46  -539.933561        c -1.35
iter:  49 22:14:13  -537.795798        c -1.58
iter:  50 22:15:30  -538.111840        c -1.89
iter:  51 22:16:59  -538.342751        c -1.79
iter:  52 22:18:28  -539.437081        c -1.76
iter:  53 22:19:45  -538.295551        c -1.63
iter:  54 22:21:06  -538.007537        c -1.79
iter:  55 22:22:28  -537.633638        c -1.82
iter:  56 22:23:50  -537.700813        c -1.93
iter:  57 22:25:08  -537.972173        c -1.90
iter:  58 22:26:30  -537.529923        c -1.85
iter:  59 22:27:59  -538.111474        c -1.98
iter:  60 22:29:21  -537.534476        c -1.81
iter:  61 22:30:44  -538.402191        c -1.97
iter:  62 22:32:01  -537.702299        c -1.75
iter:  63 22:33:18  -537.447605        c -1.96
iter:  64 22:34:33  -537.447499        c -2.03
iter:  65 22:35:54  -537.389612        c -2.09
iter:  66 22:37:20  -537.488861        c -2.10
iter:  67 22:38:37  -537.716017        c -2.04
iter:  68 22:40:08  -537.579993        c -1.95
iter:  69 22:41:24  -537.868405        c -1.97
iter:  70 22:42:47  -537.439865        c -1.90
iter:  71 22:44:09  -537.416174        c -2.07
iter:  72 22:45:24  -537.342187        c -2.14
iter:  73 22:46:43  -537.331245        c -2.17
iter:  74 22:48:03  -537.419480        c -2.19
iter:  75 22:49:20  -537.595778        c -2.16
iter:  76 22:50:39  -537.820290        c -1.97
iter:  77 22:52:01  -537.448315        c -1.90
iter:  78 22:53:21  -537.434132        c -2.08
iter:  79 22:54:37  -537.312575        c -2.10
iter:  80 22:56:01  -537.300970        c -2.31
iter:  81 22:57:18  -537.379719        c -2.30
iter:  82 22:58:36  -537.357960        c -2.12
iter:  83 22:59:57  -537.365531        c -2.19
iter:  84 23:01:15  -537.575313        c -2.22
iter:  85 23:02:37  -537.273255        c -2.02
iter:  86 23:03:52  -537.248886        c -2.37
iter:  87 23:05:19  -537.340674        c -2.42
iter:  88 23:06:38  -537.287199        c -2.33
iter:  89 23:07:54  -537.282265        c -2.33
iter:  90 23:09:11  -537.368520        c -2.27
iter:  91 23:10:31  -537.288695        c -2.18
iter:  92 23:11:46  -537.252066        c -2.32
iter:  93 23:13:01  -537.233058        c -2.48
iter:  94 23:14:33  -537.278810        c -2.45
iter:  95 23:15:55  -537.340971        c -2.35
iter:  96 23:17:14  -537.294342        c -2.29
iter:  97 23:18:34  -537.326281        c -2.35
iter:  98 23:19:53  -537.236974        c -2.32
iter:  99 23:21:14  -537.258176        c -2.51
iter: 100 23:22:31  -537.280688        c -2.52
iter: 101 23:23:54  -537.249877        c -2.38
iter: 102 23:25:17  -537.248285        c -2.38
iter: 103 23:26:38  -537.283542        c -2.51
iter: 104 23:27:57  -537.258146        c -2.35
iter: 105 23:29:16  -537.241786        c -2.50
iter: 106 23:30:35  -537.241306        c -2.52
iter: 107 23:31:57  -537.258761        c -2.48
iter: 108 23:33:14  -537.227132        c -2.54
iter: 109 23:34:33  -537.241746        c -2.63
iter: 110 23:35:47  -537.231002        c -2.63
iter: 111 23:37:02  -537.230730        c -2.58
iter: 112 23:38:19  -537.287674        c -2.68
iter: 113 23:39:34  -537.218248        c -2.41
iter: 114 23:40:52  -537.237457        c -2.62
iter: 115 23:42:09  -537.226711        c -2.61
iter: 116 23:43:23  -537.224899        c -2.71
iter: 117 23:44:38  -537.219569c       c -2.75
iter: 118 23:45:58  -537.236518        c -2.68
iter: 119 23:47:21  -537.240891        c -2.49
iter: 120 23:48:38  -537.227810        c -2.70
iter: 121 23:49:52  -537.225625        c -2.69
iter: 122 23:51:10  -537.221075c       c -2.77
iter: 123 23:52:27  -537.230454        c -2.82
iter: 124 23:53:43  -537.263871        c -2.77
iter: 125 23:55:01  -537.213380        c -2.51
iter: 126 23:56:19  -537.225694        c -2.72
iter: 127 23:57:35  -537.218019        c -2.73
iter: 128 23:58:56  -537.219172c       c -2.84
iter: 129 00:00:16  -537.217822c       c -2.89
iter: 130 00:01:32  -537.222997c       c -2.83
iter: 131 00:02:52  -537.238359        c -2.61
iter: 132 00:04:10  -537.226708        c -2.78
iter: 133 00:05:27  -537.223054        c -2.73
iter: 134 00:06:42  -537.217492        c -2.88
iter: 135 00:07:56  -537.219711c       c -2.95
iter: 136 00:09:14  -537.238887        c -2.94
iter: 137 00:10:31  -537.210598        c -2.70
iter: 138 00:11:51  -537.224340        c -2.83
iter: 139 00:13:06  -537.215479        c -2.76
iter: 140 00:14:27  -537.218296        c -2.95
iter: 141 00:15:53  -537.217801c       c -3.00
iter: 142 00:17:14  -537.212926c       c -2.97
iter: 143 00:18:35  -537.227787        c -2.85
iter: 144 00:19:55  -537.222513        c -2.93
iter: 145 00:21:14  -537.219271c       c -2.82
iter: 146 00:22:30  -537.215108c       c -3.00
iter: 147 00:23:47  -537.215054c       c -3.01
iter: 148 00:25:04  -537.223573c       c -3.05
iter: 149 00:26:31  -537.210840        c -2.96
iter: 150 00:27:46  -537.218616        c -3.03
iter: 151 00:29:03  -537.214292c       c -2.92
iter: 152 00:30:23  -537.218551c       c -3.10
iter: 153 00:31:41  -537.218971c       c -3.05
iter: 154 00:33:05  -537.211328c       c -3.03
iter: 155 00:34:21  -537.219105c       c -3.11
iter: 156 00:35:44  -537.217178c       c -3.14
iter: 157 00:37:12  -537.216284c       c -3.02
iter: 158 00:38:27  -537.214210c       c -3.16
iter: 159 00:39:44  -537.213287c       c -3.07
iter: 160 00:41:07  -537.219063c       c -3.05
iter: 161 00:42:24  -537.212577c       c -3.15
iter: 162 00:43:46  -537.215085c       c -3.21
iter: 163 00:45:03  -537.213688c       c -3.14
iter: 164 00:46:30  -537.216976c       c -3.26
iter: 165 00:47:49  -537.220105c       c -3.14
iter: 166 00:49:10  -537.211006        c -3.03
iter: 167 00:50:31  -537.215692        c -3.24
iter: 168 00:51:51  -537.215030c       c -3.27
iter: 169 00:53:11  -537.214778c       c -3.20
iter: 170 00:54:34  -537.213776c       c -3.31
iter: 171 00:55:49  -537.212314c       c -3.19
iter: 172 00:57:09  -537.218034c       c -3.06
iter: 173 00:58:23  -537.213511c       c -3.24
iter: 174 00:59:40  -537.213986c       c -3.30
iter: 175 01:01:00  -537.213389c       c -3.30
iter: 176 01:02:16  -537.214871c       c -3.38
iter: 177 01:03:35  -537.219610c       c -3.29
iter: 178 01:04:53  -537.210875c       c -3.08
iter: 179 01:06:10  -537.214266c       c -3.34
iter: 180 01:07:34  -537.214398c       c -3.34
iter: 181 01:09:02  -537.214227c       c -3.33
iter: 182 01:10:21  -537.213574c       c -3.42
iter: 183 01:11:42  -537.211417c       c -3.34
iter: 184 01:12:57  -537.216494c       c -3.13
iter: 185 01:14:22  -537.213827c       c -3.38
iter: 186 01:15:38  -537.213231c       c -3.38
iter: 187 01:17:01  -537.213041c       c -3.43
iter: 188 01:18:21  -537.213867c       c -3.47
iter: 189 01:19:41  -537.218407c       c -3.41
iter: 190 01:21:00  -537.211568c       c -3.18
iter: 191 01:22:16  -537.213389c       c -3.47
iter: 192 01:23:44  -537.213948c       c -3.46
iter: 193 01:25:08  -537.213961c       c -3.49
iter: 194 01:26:26  -537.213396c       c -3.52
iter: 195 01:27:52  -537.210798c       c -3.45
iter: 196 01:29:09  -537.214647c       c -3.23
iter: 197 01:30:30  -537.213643c       c -3.55
iter: 198 01:31:45  -537.212814c       c -3.51
iter: 199 01:32:59  -537.212858c       c -3.62
iter: 200 01:34:13  -537.213466c       c -3.57
iter: 201 01:35:32  -537.217396c       c -3.51
iter: 202 01:36:49  -537.212444c       c -3.28
iter: 203 01:38:10  -537.212929c       c -3.60
iter: 204 01:39:27  -537.213500c       c -3.59
iter: 205 01:40:46  -537.213508c       c -3.68
iter: 206 01:42:00  -537.213180c       c -3.64
iter: 207 01:43:21  -537.210640c       c -3.56
iter: 208 01:44:38  -537.213597c       c -3.35
iter: 209 01:45:55  -537.213649c       c -3.67
iter: 210 01:47:14  -537.212814c       c -3.60
iter: 211 01:48:39  -537.212893c       c -3.78
iter: 212 01:50:00  -537.213199c       c -3.71
iter: 213 01:51:20  -537.216255c       c -3.63
iter: 214 01:52:38  -537.212765c       c -3.42
iter: 215 01:53:55  -537.212422c       c -3.70
iter: 216 01:55:10  -537.213134c       c -3.61
iter: 217 01:56:28  -537.213062c       c -3.83
iter: 218 01:57:45  -537.213029c       c -3.81
iter: 219 01:59:08  -537.211077c       c -3.70
iter: 220 02:00:24  -537.213221c       c -3.54
iter: 221 02:01:40  -537.214291c       c -3.78
iter: 222 02:02:56  -537.212874c       c -3.54
iter: 223 02:04:11  -537.212945c       c -3.88
iter: 224 02:05:27  -537.212953c       c -3.86
iter: 225 02:06:58  -537.214688c       c -3.79
iter: 226 02:08:18  -537.212754c       c -3.66
iter: 227 02:09:42  -537.211742c       c -3.83
iter: 228 02:11:05  -537.212956c       c -3.52
iter: 229 02:12:29  -537.212879c       c -3.92
iter: 230 02:13:49  -537.212986c       c -3.93
iter: 231 02:15:06  -537.211893c       c -3.87
iter: 232 02:16:21  -537.213059c       c -3.81
iter: 233 02:17:37  -537.214870c       c -3.93
iter: 234 02:18:53  -537.212824c       c -3.51
iter: 235 02:20:09  -537.212886c       c -3.95
iter: 236 02:21:24  -537.212731c       c -3.95
iter: 237 02:22:52  -537.213508c       c -3.95
iter: 238 02:24:07  -537.212698c       c -3.97
iter: 239 02:25:28  -537.211444c       c -4.00
iter: 240 02:26:45  -537.212904c       c -3.57
iter: 241 02:28:11  -537.212838c       c -4.00
iter: 242 02:29:37  -537.213065c       c -4.00c

Converged after 242 iterations.

Dipole moment: (-2.928087, -37.533887, 4.382749) |e|*Ang

Energy contributions relative to reference atoms: (reference = -5971646.109123)

Kinetic:       -1432.357431
Potential:     +975.873508
External:        +0.000000
XC:             -84.085537
Entropy (-ST):   -7.565653
Local:           +7.139221
SIC:             +0.000000
--------------------------
Free energy:   -540.995891
Extrapolated:  -537.213065

Showing only first 2 kpts
 Kpt  Band  Eigenvalues  Occupancy
  0   436     -3.01114    0.98446
  0   437     -2.99345    0.89638
  0   438     -2.96936    0.77927
  0   439     -2.96225    0.74573

  1   436     -3.00858    0.97168
  1   437     -3.00129    0.93528
  1   438     -2.98456    0.85266
  1   439     -2.97100    0.78710


Fermi level: -3.01425

No gap
No difference between direct/indirect transitions
Timing:                              incl.     excl.
-----------------------------------------------------------
Basic WFS set positions:             0.001     0.001   0.0% |
Basis functions set positions:       0.285     0.285   0.0% |
LCAO WFS Initialize:                 1.878     0.199   0.0% |
 Hamiltonian:                        1.679     0.000   0.0% |
  Atomic:                            0.245     0.003   0.0% |
   XC Correction:                    0.242     0.242   0.0% |
  Calculate atomic Hamiltonians:     0.036     0.036   0.0% |
  Communicate:                       0.000     0.000   0.0% |
  Hartree integrate/restrict:        0.103     0.103   0.0% |
  Initialize Hamiltonian:            0.000     0.000   0.0% |
  Poisson:                           0.980     0.062   0.0% |
   Communicate from 1D:              0.095     0.095   0.0% |
   Communicate from 2D:              0.095     0.095   0.0% |
   Communicate to 1D:                0.062     0.062   0.0% |
   Communicate to 2D:                0.094     0.094   0.0% |
   FFT 1D:                           0.134     0.134   0.0% |
   FFT 2D:                           0.439     0.439   0.0% |
  XC 3D grid:                        0.299     0.299   0.0% |
  vbar:                              0.017     0.017   0.0% |
P tci:                               3.762     3.762   0.0% |
SCF-cycle:                       19235.709     0.423   0.0% |
 Density:                         9814.744     0.004   0.0% |
  Atomic density matrices:           8.428     8.428   0.0% |
  Mix:                              50.699    50.699   0.3% |
  Multipole moments:                 0.108     0.108   0.0% |
  Normalize:                         0.335     0.335   0.0% |
  Pseudo density:                 9755.169     1.360   0.0% |
   Calculate density matrix:       103.421   103.421   0.5% |
   Construct density:             9650.384  9650.384  50.1% |-------------------|
   Symmetrize density:               0.005     0.005   0.0% |
 Hamiltonian:                      398.870     0.013   0.0% |
  Atomic:                           58.621     0.645   0.0% |
   XC Correction:                   57.977    57.977   0.3% |
  Calculate atomic Hamiltonians:     8.667     8.667   0.0% |
  Communicate:                       0.001     0.001   0.0% |
  Hartree integrate/restrict:       24.677    24.677   0.1% |
  Poisson:                         232.170    13.245   0.1% |
   Communicate from 1D:             22.763    22.763   0.1% |
   Communicate from 2D:             22.856    22.856   0.1% |
   Communicate to 1D:               15.021    15.021   0.1% |
   Communicate to 2D:               22.689    22.689   0.1% |
   FFT 1D:                          32.325    32.325   0.2% |
   FFT 2D:                         103.271   103.271   0.5% |
  XC 3D grid:                       72.562    72.562   0.4% |
  vbar:                              2.160     2.160   0.0% |
 LCAO eigensolver:                9021.672    16.198   0.1% |
  Calculate projections:           258.393   258.393   1.3% ||
  DenseAtomicCorrection:          4180.753  4180.753  21.7% |--------|
  Distribute overlap matrix:        53.163    53.163   0.3% |
  Orbital Layouts:                3007.699  3007.699  15.6% |-----|
  Potential matrix:               1406.214  1406.214   7.3% |--|
  Sum over cells:                   99.253    99.253   0.5% |
ST tci:                              0.856     0.856   0.0% |
Set symmetry:                        0.000     0.000   0.0% |
TCI: Evaluate splines:               0.161     0.161   0.0% |
mktci:                               0.010     0.010   0.0% |
Other:                              19.680    19.680   0.1% |
-----------------------------------------------------------
Total:                                     19262.342 100.0%

Memory usage: 4.49 GiB
Date: Sat Feb 21 02:29:37 2026
