
  ___ ___ ___ _ _ _  
 |   |   |_  | | | | 
 | | | | | . | | | | 
 |__ |  _|___|_____|  25.7.0
 |___|_|             

User:   mikei@Z790-AORUS-ELITE-AX
Date:   Sat Feb 21 16:19:35 2026
Arch:   x86_64
Pid:    89048
CWD:    /home/mikei/Dokumenty/code/cemea/ocx
Python: 3.10.16
gpaw:   /home/mikei/.pyenv/versions/cemea-env/lib/python3.10/site-packages/gpaw
_gpaw:  /home/mikei/.pyenv/versions/cemea-env/lib/python3.10/site-packages/
        _gpaw.cpython-310-x86_64-linux-gnu.so
ase:    /home/mikei/.pyenv/versions/cemea-env/lib/python3.10/site-packages/ase (version 3.27.0)
numpy:  /home/mikei/.pyenv/versions/cemea-env/lib/python3.10/site-packages/numpy (version 2.2.6)
scipy:  /home/mikei/.pyenv/versions/cemea-env/lib/python3.10/site-packages/scipy (version 1.15.3)
libxc:  2.x.y
units:  Angstrom and eV
cores: 1
OpenMP: False
OMP_NUM_THREADS: 1

Input parameters:
  basis: dzp
  convergence: {density: 0.0001,
                eigenstates: 1e-05,
                energy: 1e-05}
  kpts: [4 4 1]
  mode: lcao

System changes: positions, numbers, cell, pbc, initial_charges, initial_magmoms 

Initialize ...

species:
  Mo:
    name: Molybdenum
    id: ac24daaf086600a00ce6d19a74574df1
    Z: 42.0
    valence: 14
    core: 28
    charge: 0.0
    file: /home/mikei/.pyenv/versions/cemea-env/lib/python3.10/site-packages/gpaw_data/setups/Mo.LDA.gz
    compensation charges: {type: gauss,
                           rc: 0.38,
                           lmax: 2}
    cutoffs: {filter: 2.16,
              core: 1.42}
    projectors:
      #              energy  rcut
      - 4s(2.00)   -64.384   1.238
      - 5s(1.00)    -4.319   1.238
      - 4p(6.00)   -38.595   1.296
      - 5p(0.00)    -1.161   1.296
      - 4d(5.00)    -3.933   1.296
      -  d          23.278   1.296
  
    # LCAO basis set for Mo:
    #   Name: dzp
    #   File: /home/mikei/.pyenv/versions/cemea-env/lib/python3.10/site-packages/gpaw_data/setups/Mo.dzp.basis.gz
    #   Number of radial functions: 11
    #   Number of spherical harmonics: 29
    #     l=0, rc=3.5469 Bohr: 4s-sz confined orbital
    #     l=0, rc=10.0469 Bohr: 5s-sz confined orbital
    #     l=1, rc=4.0781 Bohr: 4p-sz confined orbital
    #     l=1, rc=14.0938 Bohr: 5p-sz confined orbital
    #     l=2, rc=7.2031 Bohr: 4d-sz confined orbital
    #     l=0, rc=2.1250 Bohr: 4s-dz split-valence wave
    #     l=0, rc=6.1250 Bohr: 5s-dz split-valence wave
    #     l=1, rc=2.5469 Bohr: 4p-dz split-valence wave
    #     l=1, rc=8.7656 Bohr: 5p-dz split-valence wave
    #     l=2, rc=4.2344 Bohr: 4d-dz split-valence wave
    #     l=1, rc=10.0469 Bohr: p-type Gaussian polarization
    #   Number of RI-basis functions 0

  B:
    name: Boron
    id: 02e2e0e88ef95f403158802f6b0f4231
    Z: 5.0
    valence: 3
    core: 2
    charge: 0.0
    file: /home/mikei/.pyenv/versions/cemea-env/lib/python3.10/site-packages/gpaw_data/setups/B.LDA.gz
    compensation charges: {type: gauss,
                           rc: 0.20,
                           lmax: 2}
    cutoffs: {filter: 1.14,
              core: 1.42}
    projectors:
      #              energy  rcut
      - 2s(2.00)    -9.383   0.635
      - 2p(1.00)    -3.714   0.635
      -  s          17.828   0.635
      -  p          23.498   0.635
      -  d           0.000   0.635
  
    # LCAO basis set for B:
    #   Name: dzp
    #   File: /home/mikei/.pyenv/versions/cemea-env/lib/python3.10/site-packages/gpaw_data/setups/B.dzp.basis.gz
    #   Number of radial functions: 5
    #   Number of spherical harmonics: 13
    #     l=0, rc=6.6719 Bohr: 2s-sz confined orbital
    #     l=1, rc=8.2188 Bohr: 2p-sz confined orbital
    #     l=0, rc=3.7500 Bohr: 2s-dz split-valence wave
    #     l=1, rc=4.6094 Bohr: 2p-dz split-valence wave
    #     l=2, rc=8.2188 Bohr: d-type Gaussian polarization
    #   Number of RI-basis functions 0

Reference energy: -3320472.819649  # eV

Spin-paired calculation

Convergence criteria:
 Maximum [total energy] change in last 3 cyles: 1e-05 eV / valence electron
 Maximum integral of absolute [dens]ity change: 0.0001 electrons / valence electron
 Maximum integral of absolute [eigenst]ate change: 1e-05 eV^2 / valence electron
 Maximum number of scf [iter]ations: 333
 (Square brackets indicate name in SCF output, whereas a 'c' in
 the SCF output indicates the quantity has converged.)

Symmetries present (total): 2

  ( 1  0  0)  ( 1  0  0)
  ( 0  1  0)  ( 0 -1  0)
  ( 0  0  1)  ( 0  0  1)

16 k-points: 4 x 4 x 1 Monkhorst-Pack grid
4 k-points in the irreducible part of the Brillouin zone
       k-points in crystal coordinates                weights
   0:     0.12500000    0.12500000    0.00000000          4/16
   1:     0.12500000    0.37500000    0.00000000          4/16
   2:     0.37500000    0.12500000    0.00000000          4/16
   3:     0.37500000    0.37500000    0.00000000          4/16

Wave functions: LCAO
  Diagonalizer: Serial LAPACK
  Atomic Correction: dense with blas
  Data-type: complex
 

Occupation numbers: Fermi-Dirac:
  width: 0.1000  # eV
 

Eigensolver
   LCAO using direct dense diagonalizer 

Densities:
  Coarse grid: 224*44*88 grid
  Fine grid: 448*88*176 grid
  Total Charge: 0.000000 

Density mixing:
  Method: separate
  Backend: pulay
  Linear mixing parameter: 0.05
  old densities: 5
  Damping of long wavelength oscillations: 50 

Hamiltonian:
  XC and Coulomb potentials evaluated on a 448*88*176 grid
  Using the LDA Exchange-Correlation functional
  Interpolation: tri-quintic (5. degree polynomial)
  Poisson solver: FastPoissonSolver using
    Stencil: 6*3+1=19 point O(h^6) finite-difference Laplacian
    FFT axes: [np.int64(0), np.int64(1), np.int64(2)]
    FST axes: []
 

Memory estimate:
  Process memory now: 4595.48 MiB
  Calculator: 1127.64 MiB
    Density: 400.62 MiB
      Arrays: 172.05 MiB
      Localized functions: 162.40 MiB
      Mixer: 66.17 MiB
    Hamiltonian: 123.12 MiB
      Arrays: 112.49 MiB
      XC: 0.00 MiB
      Poisson: 0.00 MiB
      vbar: 10.63 MiB
    Wavefunctions: 603.90 MiB
      C [qnM]: 23.84 MiB
      S, T [2 x qmm]: 193.80 MiB
      P [aqMi]: 4.47 MiB
      BasisFunctions: 381.79 MiB
      Eigensolver: 0.00 MiB

Total number of cores used: 1

Number of atoms: 60
Number of atomic orbitals: 1260
Number of bands in calculation: 310
Number of valence electrons: 510
Bands to converge: occupied

... initialized

Initializing position-dependent things.

Density initialized from atomic densities
       .-------------------------------------------------------------------------------------------------------------.  
      /|                                                                                                             |  
     / |                                                                                                             |  
    /  |                                                                                                             |  
   /   |                                                                                                             |  
  /    |                                                                                                             |  
 *     |                                                                                                             |  
 |     |                                                                                                             |  
 |     |                                                                                                             |  
 |     |                                                                                                             |  
 |     |                                                                                                             |  
 |     |                     B       B      B       B      B       B      B       B      B      B                    |  
 |     |                                                                                                             |  
 |     |                   B       B      B       B      B       B      B       B      B      B                      |  
 |     |                 Mo     Mo     Mo      Mo     Mo      Mo     Mo      Mo     Mo      Mo                       |  
 |     |                 B       B      B       B      B       B      B       B      B      B                        |  
 |     |               Mo     Mo     Mo      Mo     Mo      Mo     Mo      Mo     Mo      Mo                         |  
 |     |                                                                                                             |  
 |     |             Mo     Mo     Mo      Mo     Mo      Mo     Mo      Mo     Mo      Mo                           |  
 |     |                                                                                                             |  
 |     |                                                                                                             |  
 |     |                                                                                                             |  
 |     .-------------------------------------------------------------------------------------------------------------.  
 |    /                                                                                                             /   
 |   /                                                                                                             /    
 |  /                                                                                                             /     
 | /                                                                                                             /      
 |/                                                                                                             /       
 *-------------------------------------------------------------------------------------------------------------*        

Atomic positions and initial magnetic moments

Positions:
   0 Mo     8.000000    0.000000    8.000000    ( 0.0000,  0.0000,  0.0000)
   1 B      9.525000    1.525000    9.525000    ( 0.0000,  0.0000,  0.0000)
   2 Mo     8.000000    3.050000    8.000000    ( 0.0000,  0.0000,  0.0000)
   3 B      9.525000    4.575000    9.525000    ( 0.0000,  0.0000,  0.0000)
   4 Mo     8.000000    6.100000    8.000000    ( 0.0000,  0.0000,  0.0000)
   5 B      9.525000    7.625000    9.525000    ( 0.0000,  0.0000,  0.0000)
   6 Mo    11.050000    0.000000    8.000000    ( 0.0000,  0.0000,  0.0000)
   7 B     12.575000    1.525000    9.525000    ( 0.0000,  0.0000,  0.0000)
   8 Mo    11.050000    3.050000    8.000000    ( 0.0000,  0.0000,  0.0000)
   9 B     12.575000    4.575000    9.525000    ( 0.0000,  0.0000,  0.0000)
  10 Mo    11.050000    6.100000    8.000000    ( 0.0000,  0.0000,  0.0000)
  11 B     12.575000    7.625000    9.525000    ( 0.0000,  0.0000,  0.0000)
  12 Mo    14.100000    0.000000    8.000000    ( 0.0000,  0.0000,  0.0000)
  13 B     15.625000    1.525000    9.525000    ( 0.0000,  0.0000,  0.0000)
  14 Mo    14.100000    3.050000    8.000000    ( 0.0000,  0.0000,  0.0000)
  15 B     15.625000    4.575000    9.525000    ( 0.0000,  0.0000,  0.0000)
  16 Mo    14.100000    6.100000    8.000000    ( 0.0000,  0.0000,  0.0000)
  17 B     15.625000    7.625000    9.525000    ( 0.0000,  0.0000,  0.0000)
  18 Mo    17.150000    0.000000    8.000000    ( 0.0000,  0.0000,  0.0000)
  19 B     18.675000    1.525000    9.525000    ( 0.0000,  0.0000,  0.0000)
  20 Mo    17.150000    3.050000    8.000000    ( 0.0000,  0.0000,  0.0000)
  21 B     18.675000    4.575000    9.525000    ( 0.0000,  0.0000,  0.0000)
  22 Mo    17.150000    6.100000    8.000000    ( 0.0000,  0.0000,  0.0000)
  23 B     18.675000    7.625000    9.525000    ( 0.0000,  0.0000,  0.0000)
  24 Mo    20.200000    0.000000    8.000000    ( 0.0000,  0.0000,  0.0000)
  25 B     21.725000    1.525000    9.525000    ( 0.0000,  0.0000,  0.0000)
  26 Mo    20.200000    3.050000    8.000000    ( 0.0000,  0.0000,  0.0000)
  27 B     21.725000    4.575000    9.525000    ( 0.0000,  0.0000,  0.0000)
  28 Mo    20.200000    6.100000    8.000000    ( 0.0000,  0.0000,  0.0000)
  29 B     21.725000    7.625000    9.525000    ( 0.0000,  0.0000,  0.0000)
  30 Mo    23.250000    0.000000    8.000000    ( 0.0000,  0.0000,  0.0000)
  31 B     24.775000    1.525000    9.525000    ( 0.0000,  0.0000,  0.0000)
  32 Mo    23.250000    3.050000    8.000000    ( 0.0000,  0.0000,  0.0000)
  33 B     24.775000    4.575000    9.525000    ( 0.0000,  0.0000,  0.0000)
  34 Mo    23.250000    6.100000    8.000000    ( 0.0000,  0.0000,  0.0000)
  35 B     24.775000    7.625000    9.525000    ( 0.0000,  0.0000,  0.0000)
  36 Mo    26.300000    0.000000    8.000000    ( 0.0000,  0.0000,  0.0000)
  37 B     27.825000    1.525000    9.525000    ( 0.0000,  0.0000,  0.0000)
  38 Mo    26.300000    3.050000    8.000000    ( 0.0000,  0.0000,  0.0000)
  39 B     27.825000    4.575000    9.525000    ( 0.0000,  0.0000,  0.0000)
  40 Mo    26.300000    6.100000    8.000000    ( 0.0000,  0.0000,  0.0000)
  41 B     27.825000    7.625000    9.525000    ( 0.0000,  0.0000,  0.0000)
  42 Mo    29.350000    0.000000    8.000000    ( 0.0000,  0.0000,  0.0000)
  43 B     30.875000    1.525000    9.525000    ( 0.0000,  0.0000,  0.0000)
  44 Mo    29.350000    3.050000    8.000000    ( 0.0000,  0.0000,  0.0000)
  45 B     30.875000    4.575000    9.525000    ( 0.0000,  0.0000,  0.0000)
  46 Mo    29.350000    6.100000    8.000000    ( 0.0000,  0.0000,  0.0000)
  47 B     30.875000    7.625000    9.525000    ( 0.0000,  0.0000,  0.0000)
  48 Mo    32.400000    0.000000    8.000000    ( 0.0000,  0.0000,  0.0000)
  49 B     33.925000    1.525000    9.525000    ( 0.0000,  0.0000,  0.0000)
  50 Mo    32.400000    3.050000    8.000000    ( 0.0000,  0.0000,  0.0000)
  51 B     33.925000    4.575000    9.525000    ( 0.0000,  0.0000,  0.0000)
  52 Mo    32.400000    6.100000    8.000000    ( 0.0000,  0.0000,  0.0000)
  53 B     33.925000    7.625000    9.525000    ( 0.0000,  0.0000,  0.0000)
  54 Mo    35.450000    0.000000    8.000000    ( 0.0000,  0.0000,  0.0000)
  55 B     36.975000    1.525000    9.525000    ( 0.0000,  0.0000,  0.0000)
  56 Mo    35.450000    3.050000    8.000000    ( 0.0000,  0.0000,  0.0000)
  57 B     36.975000    4.575000    9.525000    ( 0.0000,  0.0000,  0.0000)
  58 Mo    35.450000    6.100000    8.000000    ( 0.0000,  0.0000,  0.0000)
  59 B     36.975000    7.625000    9.525000    ( 0.0000,  0.0000,  0.0000)

Unit cell:
           periodic     x           y           z      points  spacing
  1. axis:    yes   44.975000    0.000000    0.000000   224     0.2008
  2. axis:    yes    0.000000    9.150000    0.000000    44     0.2080
  3. axis:    yes    0.000000    0.000000   17.525000    88     0.1991

  Lengths:  44.975000   9.150000  17.525000
  Angles:   90.000000  90.000000  90.000000

Effective grid spacing dv^(1/3) = 0.2026

     iter     time        total  log10-change:
                         energy   eigst   dens
iter:   1 16:20:00  -423.387498        c
iter:   2 16:20:27  -629.849867        c -0.92
iter:   3 16:20:50  -485.660319        c -0.61
iter:   4 16:21:14  -422.744637        c -0.77
iter:   5 16:21:37  -393.569918        c -0.91
iter:   6 16:22:00  -394.481045        c -1.07
iter:   7 16:22:25  -393.989155        c -1.06
iter:   8 16:22:52  -430.674291        c -1.07
iter:   9 16:23:15  -436.035381        c -0.89
iter:  10 16:23:41  -390.456828        c -0.86
iter:  11 16:24:05  -418.579771        c -1.10
iter:  12 16:24:28  -398.396097        c -0.93
iter:  13 16:24:51  -381.669612        c -1.04
iter:  14 16:25:18  -378.898256        c -1.20
iter:  15 16:25:44  -466.118207        c -1.26
iter:  16 16:26:13  -378.463764        c -0.79
iter:  17 16:26:40  -374.769316        c -1.30
iter:  18 16:27:05  -373.064089        c -1.45
iter:  19 16:27:29  -376.576662        c -1.62
iter:  20 16:27:52  -373.415677        c -1.40
iter:  21 16:28:15  -383.195165        c -1.59
iter:  22 16:28:38  -372.755465        c -1.19
iter:  23 16:29:01  -372.889610        c -1.70
iter:  24 16:29:24  -372.340112        c -1.66
iter:  25 16:29:51  -372.316977        c -1.80
iter:  26 16:30:15  -372.195485        c -1.83
iter:  27 16:30:38  -373.415994        c -1.90
iter:  28 16:31:01  -376.713296        c -1.64
iter:  29 16:31:24  -372.375005        c -1.36
iter:  30 16:31:47  -374.211371        c -1.84
iter:  31 16:32:14  -372.667925        c -1.54
iter:  32 16:32:37  -371.993218        c -1.75
iter:  33 16:33:00  -371.972275        c -2.13
iter:  34 16:33:26  -372.108955        c -2.15
iter:  35 16:33:52  -372.025830        c -2.00
iter:  36 16:34:19  -372.327624        c -2.12
iter:  37 16:34:45  -372.432901        c -1.92
iter:  38 16:35:13  -372.173734        c -1.82
iter:  39 16:35:37  -372.046542        c -1.93
iter:  40 16:36:04  -372.079777        c -2.17
iter:  41 16:36:32  -371.907296        c -2.06
iter:  42 16:36:55  -371.904903        c -2.52
iter:  43 16:37:18  -371.938679        c -2.53
iter:  44 16:37:41  -372.140127        c -2.38
iter:  45 16:38:04  -371.893491        c -2.01
iter:  46 16:38:27  -371.931879        c -3.00
iter:  47 16:38:51  -371.901820        c -2.50
iter:  48 16:39:17  -371.897335        c -2.77
iter:  49 16:39:40  -371.894061        c -3.04
iter:  50 16:40:03  -371.897768c       c -2.98
iter:  51 16:40:26  -371.895248c       c -2.88
iter:  52 16:40:49  -371.893569c       c -3.23
iter:  53 16:41:12  -371.895596c       c -3.23
iter:  54 16:41:36  -371.894307c       c -3.12
iter:  55 16:41:59  -371.897684c       c -3.18
iter:  56 16:42:22  -371.897030c       c -3.12
iter:  57 16:42:45  -371.894225c       c -2.98
iter:  58 16:43:09  -371.895568c       c -3.29
iter:  59 16:43:34  -371.894874c       c -3.34
iter:  60 16:44:00  -371.895536c       c -3.23
iter:  61 16:44:23  -371.893191c       c -3.30
iter:  62 16:44:49  -371.895625c       c -3.26
iter:  63 16:45:14  -371.895401c       c -3.16
iter:  64 16:45:39  -371.894266c       c -3.34
iter:  65 16:46:05  -371.895527c       c -3.45
iter:  66 16:46:28  -371.894468c       c -3.31
iter:  67 16:46:52  -371.896359c       c -3.40
iter:  68 16:47:18  -371.895103c       c -3.38
iter:  69 16:47:44  -371.894350c       c -3.32
iter:  70 16:48:11  -371.895083c       c -3.37
iter:  71 16:48:35  -371.894530c       c -3.56
iter:  72 16:49:04  -371.895176c       c -3.46
iter:  73 16:49:30  -371.893956c       c -3.53
iter:  74 16:49:55  -371.894961c       c -3.55
iter:  75 16:50:20  -371.895356c       c -3.52
iter:  76 16:50:45  -371.894627c       c -3.50
iter:  77 16:51:11  -371.895199c       c -3.67
iter:  78 16:51:34  -371.894504c       c -3.57
iter:  79 16:51:57  -371.895502c       c -3.58
iter:  80 16:52:20  -371.894718c       c -3.61
iter:  81 16:52:44  -371.894459c       c -3.63
iter:  82 16:53:06  -371.894850c       c -3.62
iter:  83 16:53:29  -371.894575c       c -3.76
iter:  84 16:53:52  -371.895268c       c -3.72
iter:  85 16:54:16  -371.894309c       c -3.61
iter:  86 16:54:40  -371.894988c       c -3.67
iter:  87 16:55:08  -371.895148c       c -3.72
iter:  88 16:55:31  -371.894792c       c -3.75
iter:  89 16:55:56  -371.894997c       c -3.84
iter:  90 16:56:22  -371.894476c       c -3.82
iter:  91 16:56:45  -371.895377c       c -3.64
iter:  92 16:57:08  -371.894660c       c -3.69
iter:  93 16:57:36  -371.894539c       c -3.73
iter:  94 16:58:00  -371.894830c       c -3.84
iter:  95 16:58:25  -371.894727c       c -3.88
iter:  96 16:58:51  -371.895358c       c -3.89
iter:  97 16:59:19  -371.894461c       c -3.67
iter:  98 16:59:45  -371.895057c       c -3.77
iter:  99 17:00:12  -371.895054c       c -3.77
iter: 100 17:00:37  -371.894801c       c -3.95
iter: 101 17:01:02  -371.894889c       c -3.92
iter: 102 17:01:30  -371.894451c       c -3.96
iter: 103 17:01:53  -371.895219c       c -3.74
iter: 104 17:02:16  -371.894727c       c -3.85
iter: 105 17:02:43  -371.894718c       c -3.80
iter: 106 17:03:07  -371.894884c       c -4.08c

Converged after 106 iterations.

Dipole moment: (-1.141942, -31.567333, -0.963115) |e|*Ang

Energy contributions relative to reference atoms: (reference = -3320472.819649)

Kinetic:       -779.272782
Potential:     +521.842418
External:        +0.000000
XC:            -115.942817
Entropy (-ST):   -4.316097
Local:           +3.636346
SIC:             +0.000000
--------------------------
Free energy:   -374.052933
Extrapolated:  -371.894884

Showing only first 2 kpts
 Kpt  Band  Eigenvalues  Occupancy
  0   253     -3.16321    0.74941
  0   254     -3.15791    0.72475
  0   255     -3.14685    0.67445
  0   256     -3.14151    0.65080

  1   253     -3.29060    1.36349
  1   254     -3.27634    1.30011
  1   255     -3.27053    1.27343
  1   256     -3.25389    1.19484


Fermi level: -3.21441

No gap
No difference between direct/indirect transitions
Timing:                              incl.     excl.
-----------------------------------------------------------
Basic WFS set positions:             0.001     0.001   0.0% |
Basis functions set positions:       0.192     0.192   0.0% |
LCAO WFS Initialize:                 1.061     0.121   0.0% |
 Hamiltonian:                        0.940     0.000   0.0% |
  Atomic:                            0.171     0.002   0.0% |
   XC Correction:                    0.169     0.169   0.0% |
  Calculate atomic Hamiltonians:     0.021     0.021   0.0% |
  Communicate:                       0.000     0.000   0.0% |
  Hartree integrate/restrict:        0.051     0.051   0.0% |
  Initialize Hamiltonian:            0.000     0.000   0.0% |
  Poisson:                           0.505     0.035   0.0% |
   Communicate from 1D:              0.054     0.054   0.0% |
   Communicate from 2D:              0.055     0.055   0.0% |
   Communicate to 1D:                0.036     0.036   0.0% |
   Communicate to 2D:                0.054     0.054   0.0% |
   FFT 1D:                           0.060     0.060   0.0% |
   FFT 2D:                           0.211     0.211   0.0% |
  XC 3D grid:                        0.183     0.183   0.0% |
  vbar:                              0.010     0.010   0.0% |
P tci:                               1.053     1.053   0.0% |
SCF-cycle:                        2604.099     0.110   0.0% |
 Density:                         1523.705     0.002   0.0% |
  Atomic density matrices:           0.840     0.840   0.0% |
  Mix:                              15.333    15.333   0.6% |
  Multipole moments:                 0.034     0.034   0.0% |
  Normalize:                         0.037     0.037   0.0% |
  Pseudo density:                 1507.460     0.116   0.0% |
   Calculate density matrix:         7.295     7.295   0.3% |
   Construct density:             1498.027  1498.027  57.4% |----------------------|
   Symmetrize density:               2.022     2.022   0.1% |
 Hamiltonian:                       97.373     0.009   0.0% |
  Atomic:                           17.895     0.202   0.0% |
   XC Correction:                   17.693    17.693   0.7% |
  Calculate atomic Hamiltonians:     2.160     2.160   0.1% |
  Communicate:                       0.000     0.000   0.0% |
  Hartree integrate/restrict:        5.702     5.702   0.2% |
  Poisson:                          51.632     3.131   0.1% |
   Communicate from 1D:              5.690     5.690   0.2% |
   Communicate from 2D:              5.711     5.711   0.2% |
   Communicate to 1D:                3.853     3.853   0.1% |
   Communicate to 2D:                5.670     5.670   0.2% |
   FFT 1D:                           6.383     6.383   0.2% |
   FFT 2D:                          21.195    21.195   0.8% |
  XC 3D grid:                       19.268    19.268   0.7% |
  vbar:                              0.706     0.706   0.0% |
 LCAO eigensolver:                 982.910     1.799   0.1% |
  Calculate projections:            46.191    46.191   1.8% ||
  DenseAtomicCorrection:           196.255   196.255   7.5% |--|
  Distribute overlap matrix:         2.841     2.841   0.1% |
  Orbital Layouts:                 286.626   286.626  11.0% |---|
  Potential matrix:                440.609   440.609  16.9% |------|
  Sum over cells:                    8.589     8.589   0.3% |
ST tci:                              0.418     0.418   0.0% |
Set symmetry:                        0.001     0.001   0.0% |
TCI: Evaluate splines:               0.127     0.127   0.0% |
mktci:                               0.008     0.008   0.0% |
Other:                               4.837     4.837   0.2% |
-----------------------------------------------------------
Total:                                      2611.795 100.0%

Memory usage: 4.49 GiB
Date: Sat Feb 21 17:03:07 2026
