
  ___ ___ ___ _ _ _  
 |   |   |_  | | | | 
 | | | | | . | | | | 
 |__ |  _|___|_____|  25.7.0
 |___|_|             

User:   mikei@Z790-AORUS-ELITE-AX
Date:   Sat Feb 21 17:03:07 2026
Arch:   x86_64
Pid:    89048
CWD:    /home/mikei/Dokumenty/code/cemea/ocx
Python: 3.10.16
gpaw:   /home/mikei/.pyenv/versions/cemea-env/lib/python3.10/site-packages/gpaw
_gpaw:  /home/mikei/.pyenv/versions/cemea-env/lib/python3.10/site-packages/
        _gpaw.cpython-310-x86_64-linux-gnu.so
ase:    /home/mikei/.pyenv/versions/cemea-env/lib/python3.10/site-packages/ase (version 3.27.0)
numpy:  /home/mikei/.pyenv/versions/cemea-env/lib/python3.10/site-packages/numpy (version 2.2.6)
scipy:  /home/mikei/.pyenv/versions/cemea-env/lib/python3.10/site-packages/scipy (version 1.15.3)
libxc:  2.x.y
units:  Angstrom and eV
cores: 1
OpenMP: False
OMP_NUM_THREADS: 1

Input parameters:
  basis: dzp
  convergence: {density: 0.0001,
                eigenstates: 1e-05,
                energy: 1e-05}
  kpts: [4 4 1]
  mode: lcao

System changes: positions, numbers, cell, pbc, initial_charges, initial_magmoms 

Initialize ...

species:
  Mo:
    name: Molybdenum
    id: ac24daaf086600a00ce6d19a74574df1
    Z: 42.0
    valence: 14
    core: 28
    charge: 0.0
    file: /home/mikei/.pyenv/versions/cemea-env/lib/python3.10/site-packages/gpaw_data/setups/Mo.LDA.gz
    compensation charges: {type: gauss,
                           rc: 0.38,
                           lmax: 2}
    cutoffs: {filter: 2.16,
              core: 1.42}
    projectors:
      #              energy  rcut
      - 4s(2.00)   -64.384   1.238
      - 5s(1.00)    -4.319   1.238
      - 4p(6.00)   -38.595   1.296
      - 5p(0.00)    -1.161   1.296
      - 4d(5.00)    -3.933   1.296
      -  d          23.278   1.296
  
    # LCAO basis set for Mo:
    #   Name: dzp
    #   File: /home/mikei/.pyenv/versions/cemea-env/lib/python3.10/site-packages/gpaw_data/setups/Mo.dzp.basis.gz
    #   Number of radial functions: 11
    #   Number of spherical harmonics: 29
    #     l=0, rc=3.5469 Bohr: 4s-sz confined orbital
    #     l=0, rc=10.0469 Bohr: 5s-sz confined orbital
    #     l=1, rc=4.0781 Bohr: 4p-sz confined orbital
    #     l=1, rc=14.0938 Bohr: 5p-sz confined orbital
    #     l=2, rc=7.2031 Bohr: 4d-sz confined orbital
    #     l=0, rc=2.1250 Bohr: 4s-dz split-valence wave
    #     l=0, rc=6.1250 Bohr: 5s-dz split-valence wave
    #     l=1, rc=2.5469 Bohr: 4p-dz split-valence wave
    #     l=1, rc=8.7656 Bohr: 5p-dz split-valence wave
    #     l=2, rc=4.2344 Bohr: 4d-dz split-valence wave
    #     l=1, rc=10.0469 Bohr: p-type Gaussian polarization
    #   Number of RI-basis functions 0

  B:
    name: Boron
    id: 02e2e0e88ef95f403158802f6b0f4231
    Z: 5.0
    valence: 3
    core: 2
    charge: 0.0
    file: /home/mikei/.pyenv/versions/cemea-env/lib/python3.10/site-packages/gpaw_data/setups/B.LDA.gz
    compensation charges: {type: gauss,
                           rc: 0.20,
                           lmax: 2}
    cutoffs: {filter: 1.14,
              core: 1.42}
    projectors:
      #              energy  rcut
      - 2s(2.00)    -9.383   0.635
      - 2p(1.00)    -3.714   0.635
      -  s          17.828   0.635
      -  p          23.498   0.635
      -  d           0.000   0.635
  
    # LCAO basis set for B:
    #   Name: dzp
    #   File: /home/mikei/.pyenv/versions/cemea-env/lib/python3.10/site-packages/gpaw_data/setups/B.dzp.basis.gz
    #   Number of radial functions: 5
    #   Number of spherical harmonics: 13
    #     l=0, rc=6.6719 Bohr: 2s-sz confined orbital
    #     l=1, rc=8.2188 Bohr: 2p-sz confined orbital
    #     l=0, rc=3.7500 Bohr: 2s-dz split-valence wave
    #     l=1, rc=4.6094 Bohr: 2p-dz split-valence wave
    #     l=2, rc=8.2188 Bohr: d-type Gaussian polarization
    #   Number of RI-basis functions 0

  H:
    name: Hydrogen
    id: 4766778ce56282eaa64abeb28b7c1de3
    Z: 1.0
    valence: 1
    core: 0
    charge: 0.0
    file: /home/mikei/.pyenv/versions/cemea-env/lib/python3.10/site-packages/gpaw_data/setups/H.LDA.gz
    compensation charges: {type: gauss,
                           rc: 0.15,
                           lmax: 2}
    cutoffs: {filter: 0.85,
              core: 0.53}
    projectors:
      #              energy  rcut
      - 1s(1.00)    -6.353   0.476
      -  s          20.858   0.476
      -  p           0.000   0.476
  
    # LCAO basis set for H:
    #   Name: dzp
    #   File: /home/mikei/.pyenv/versions/cemea-env/lib/python3.10/site-packages/gpaw_data/setups/H.dzp.basis.gz
    #   Number of radial functions: 3
    #   Number of spherical harmonics: 5
    #     l=0, rc=6.4219 Bohr: 1s-sz confined orbital
    #     l=0, rc=3.6094 Bohr: 1s-dz split-valence wave
    #     l=1, rc=6.4219 Bohr: p-type Gaussian polarization
    #   Number of RI-basis functions 0

Reference energy: -3320484.948607  # eV

Spin-paired calculation

Convergence criteria:
 Maximum [total energy] change in last 3 cyles: 1e-05 eV / valence electron
 Maximum integral of absolute [dens]ity change: 0.0001 electrons / valence electron
 Maximum integral of absolute [eigenst]ate change: 1e-05 eV^2 / valence electron
 Maximum number of scf [iter]ations: 333
 (Square brackets indicate name in SCF output, whereas a 'c' in
 the SCF output indicates the quantity has converged.)

Symmetries present (total): 1

  ( 1  0  0)
  ( 0  1  0)
  ( 0  0  1)

16 k-points: 4 x 4 x 1 Monkhorst-Pack grid
8 k-points in the irreducible part of the Brillouin zone
       k-points in crystal coordinates                weights
   0:     0.12500000   -0.37500000    0.00000000          2/16
   1:     0.12500000   -0.12500000    0.00000000          2/16
   2:     0.12500000    0.12500000    0.00000000          2/16
   3:     0.12500000    0.37500000    0.00000000          2/16
   4:     0.37500000   -0.37500000    0.00000000          2/16
   5:     0.37500000   -0.12500000    0.00000000          2/16
   6:     0.37500000    0.12500000    0.00000000          2/16
   7:     0.37500000    0.37500000    0.00000000          2/16

Wave functions: LCAO
  Diagonalizer: Serial LAPACK
  Atomic Correction: dense with blas
  Data-type: complex
 

Occupation numbers: Fermi-Dirac:
  width: 0.1000  # eV
 

Eigensolver
   LCAO using direct dense diagonalizer 

Densities:
  Coarse grid: 224*44*88 grid
  Fine grid: 448*88*176 grid
  Total Charge: 0.000000 

Density mixing:
  Method: separate
  Backend: pulay
  Linear mixing parameter: 0.05
  old densities: 5
  Damping of long wavelength oscillations: 50 

Hamiltonian:
  XC and Coulomb potentials evaluated on a 448*88*176 grid
  Using the LDA Exchange-Correlation functional
  Interpolation: tri-quintic (5. degree polynomial)
  Poisson solver: FastPoissonSolver using
    Stencil: 6*3+1=19 point O(h^6) finite-difference Laplacian
    FFT axes: [np.int64(0), np.int64(1), np.int64(2)]
    FST axes: []
 

Memory estimate:
  Process memory now: 4595.48 MiB
  Calculator: 1354.15 MiB
    Density: 400.86 MiB
      Arrays: 172.05 MiB
      Localized functions: 162.64 MiB
      Mixer: 66.17 MiB
    Hamiltonian: 123.14 MiB
      Arrays: 112.49 MiB
      XC: 0.00 MiB
      Poisson: 0.00 MiB
      vbar: 10.65 MiB
    Wavefunctions: 830.15 MiB
      C [qnM]: 48.02 MiB
      S, T [2 x qmm]: 390.68 MiB
      P [aqMi]: 9.02 MiB
      BasisFunctions: 382.42 MiB
      Eigensolver: 0.00 MiB

Total number of cores used: 1

Number of atoms: 61
Number of atomic orbitals: 1265
Number of bands in calculation: 311
Number of valence electrons: 511
Bands to converge: occupied

... initialized

Initializing position-dependent things.

Density initialized from atomic densities
       .-------------------------------------------------------------------------------------------------------------.  
      /|                                                                                                             |  
     / |                                                                                                             |  
    /  |                                                                                                             |  
   /   |                                                                                                             |  
  /    |                                                                                                             |  
 *     |                                                                                                             |  
 |     |                                                                                                             |  
 |     |                                                                                                             |  
 |     |                                                                                                             |  
 |     |                                                                                                             |  
 |     |                     B       B      B       B      B       B      B       B      B      B                    |  
 |     |                                                   H                                                         |  
 |     |                   B       B      B       B      B       B      B       B      B      B                      |  
 |     |                 Mo     Mo     Mo      Mo     Mo      Mo     Mo      Mo     Mo      Mo                       |  
 |     |                 B       B      B       B      B       B      B       B      B      B                        |  
 |     |               Mo     Mo     Mo      Mo     Mo      Mo     Mo      Mo     Mo      Mo                         |  
 |     |                                                                                                             |  
 |     |             Mo     Mo     Mo      Mo     Mo      Mo     Mo      Mo     Mo      Mo                           |  
 |     |                                                                                                             |  
 |     |                                                                                                             |  
 |     |                                                                                                             |  
 |     .-------------------------------------------------------------------------------------------------------------.  
 |    /                                                                                                             /   
 |   /                                                                                                             /    
 |  /                                                                                                             /     
 | /                                                                                                             /      
 |/                                                                                                             /       
 *-------------------------------------------------------------------------------------------------------------*        

Atomic positions and initial magnetic moments

Positions:
   0 Mo     8.000000    0.000000    8.000000    ( 0.0000,  0.0000,  0.0000)
   1 B      9.525000    1.525000    9.525000    ( 0.0000,  0.0000,  0.0000)
   2 Mo     8.000000    3.050000    8.000000    ( 0.0000,  0.0000,  0.0000)
   3 B      9.525000    4.575000    9.525000    ( 0.0000,  0.0000,  0.0000)
   4 Mo     8.000000    6.100000    8.000000    ( 0.0000,  0.0000,  0.0000)
   5 B      9.525000    7.625000    9.525000    ( 0.0000,  0.0000,  0.0000)
   6 Mo    11.050000    0.000000    8.000000    ( 0.0000,  0.0000,  0.0000)
   7 B     12.575000    1.525000    9.525000    ( 0.0000,  0.0000,  0.0000)
   8 Mo    11.050000    3.050000    8.000000    ( 0.0000,  0.0000,  0.0000)
   9 B     12.575000    4.575000    9.525000    ( 0.0000,  0.0000,  0.0000)
  10 Mo    11.050000    6.100000    8.000000    ( 0.0000,  0.0000,  0.0000)
  11 B     12.575000    7.625000    9.525000    ( 0.0000,  0.0000,  0.0000)
  12 Mo    14.100000    0.000000    8.000000    ( 0.0000,  0.0000,  0.0000)
  13 B     15.625000    1.525000    9.525000    ( 0.0000,  0.0000,  0.0000)
  14 Mo    14.100000    3.050000    8.000000    ( 0.0000,  0.0000,  0.0000)
  15 B     15.625000    4.575000    9.525000    ( 0.0000,  0.0000,  0.0000)
  16 Mo    14.100000    6.100000    8.000000    ( 0.0000,  0.0000,  0.0000)
  17 B     15.625000    7.625000    9.525000    ( 0.0000,  0.0000,  0.0000)
  18 Mo    17.150000    0.000000    8.000000    ( 0.0000,  0.0000,  0.0000)
  19 B     18.675000    1.525000    9.525000    ( 0.0000,  0.0000,  0.0000)
  20 Mo    17.150000    3.050000    8.000000    ( 0.0000,  0.0000,  0.0000)
  21 B     18.675000    4.575000    9.525000    ( 0.0000,  0.0000,  0.0000)
  22 Mo    17.150000    6.100000    8.000000    ( 0.0000,  0.0000,  0.0000)
  23 B     18.675000    7.625000    9.525000    ( 0.0000,  0.0000,  0.0000)
  24 Mo    20.200000    0.000000    8.000000    ( 0.0000,  0.0000,  0.0000)
  25 B     21.725000    1.525000    9.525000    ( 0.0000,  0.0000,  0.0000)
  26 Mo    20.200000    3.050000    8.000000    ( 0.0000,  0.0000,  0.0000)
  27 B     21.725000    4.575000    9.525000    ( 0.0000,  0.0000,  0.0000)
  28 Mo    20.200000    6.100000    8.000000    ( 0.0000,  0.0000,  0.0000)
  29 B     21.725000    7.625000    9.525000    ( 0.0000,  0.0000,  0.0000)
  30 Mo    23.250000    0.000000    8.000000    ( 0.0000,  0.0000,  0.0000)
  31 B     24.775000    1.525000    9.525000    ( 0.0000,  0.0000,  0.0000)
  32 Mo    23.250000    3.050000    8.000000    ( 0.0000,  0.0000,  0.0000)
  33 B     24.775000    4.575000    9.525000    ( 0.0000,  0.0000,  0.0000)
  34 Mo    23.250000    6.100000    8.000000    ( 0.0000,  0.0000,  0.0000)
  35 B     24.775000    7.625000    9.525000    ( 0.0000,  0.0000,  0.0000)
  36 Mo    26.300000    0.000000    8.000000    ( 0.0000,  0.0000,  0.0000)
  37 B     27.825000    1.525000    9.525000    ( 0.0000,  0.0000,  0.0000)
  38 Mo    26.300000    3.050000    8.000000    ( 0.0000,  0.0000,  0.0000)
  39 B     27.825000    4.575000    9.525000    ( 0.0000,  0.0000,  0.0000)
  40 Mo    26.300000    6.100000    8.000000    ( 0.0000,  0.0000,  0.0000)
  41 B     27.825000    7.625000    9.525000    ( 0.0000,  0.0000,  0.0000)
  42 Mo    29.350000    0.000000    8.000000    ( 0.0000,  0.0000,  0.0000)
  43 B     30.875000    1.525000    9.525000    ( 0.0000,  0.0000,  0.0000)
  44 Mo    29.350000    3.050000    8.000000    ( 0.0000,  0.0000,  0.0000)
  45 B     30.875000    4.575000    9.525000    ( 0.0000,  0.0000,  0.0000)
  46 Mo    29.350000    6.100000    8.000000    ( 0.0000,  0.0000,  0.0000)
  47 B     30.875000    7.625000    9.525000    ( 0.0000,  0.0000,  0.0000)
  48 Mo    32.400000    0.000000    8.000000    ( 0.0000,  0.0000,  0.0000)
  49 B     33.925000    1.525000    9.525000    ( 0.0000,  0.0000,  0.0000)
  50 Mo    32.400000    3.050000    8.000000    ( 0.0000,  0.0000,  0.0000)
  51 B     33.925000    4.575000    9.525000    ( 0.0000,  0.0000,  0.0000)
  52 Mo    32.400000    6.100000    8.000000    ( 0.0000,  0.0000,  0.0000)
  53 B     33.925000    7.625000    9.525000    ( 0.0000,  0.0000,  0.0000)
  54 Mo    35.450000    0.000000    8.000000    ( 0.0000,  0.0000,  0.0000)
  55 B     36.975000    1.525000    9.525000    ( 0.0000,  0.0000,  0.0000)
  56 Mo    35.450000    3.050000    8.000000    ( 0.0000,  0.0000,  0.0000)
  57 B     36.975000    4.575000    9.525000    ( 0.0000,  0.0000,  0.0000)
  58 Mo    35.450000    6.100000    8.000000    ( 0.0000,  0.0000,  0.0000)
  59 B     36.975000    7.625000    9.525000    ( 0.0000,  0.0000,  0.0000)
  60 H     22.487500    3.812500   11.025000    ( 0.0000,  0.0000,  0.0000)

Unit cell:
           periodic     x           y           z      points  spacing
  1. axis:    yes   44.975000    0.000000    0.000000   224     0.2008
  2. axis:    yes    0.000000    9.150000    0.000000    44     0.2080
  3. axis:    yes    0.000000    0.000000   17.525000    88     0.1991

  Lengths:  44.975000   9.150000  17.525000
  Angles:   90.000000  90.000000  90.000000

Effective grid spacing dv^(1/3) = 0.2026

     iter     time        total  log10-change:
                         energy   eigst   dens
iter:   1 17:03:38  -426.391602        c
iter:   2 17:04:19  -636.820267        c -0.92
iter:   3 17:05:07  -487.886078        c -0.60
iter:   4 17:05:55  -412.111448        c -0.77
iter:   5 17:06:40  -395.991628        c -0.96
iter:   6 17:07:33  -396.896425        c -1.07
iter:   7 17:08:21  -397.034923        c -1.06
iter:   8 17:09:08  -434.533018        c -1.06
iter:   9 17:10:01  -434.752570        c -0.88
iter:  10 17:10:43  -394.442312        c -0.87
iter:  11 17:11:26  -420.812020        c -1.09
iter:  12 17:12:10  -403.698901        c -0.93
iter:  13 17:12:58  -386.186443        c -1.03
iter:  14 17:13:45  -381.661317        c -1.18
iter:  15 17:14:32  -414.296155        c -1.27
iter:  16 17:15:13  -408.961840        c -0.95
iter:  17 17:15:58  -376.850644        c -0.97
iter:  18 17:16:41  -376.311490        c -1.50
iter:  19 17:17:22  -379.329135        c -1.57
iter:  20 17:18:04  -377.536853        c -1.41
iter:  21 17:18:50  -378.565901        c -1.47
iter:  22 17:19:38  -377.928717        c -1.41
iter:  23 17:20:21  -375.654052        c -1.46
iter:  24 17:21:05  -375.232827        c -1.69
iter:  25 17:21:50  -375.209522        c -1.80
iter:  26 17:22:33  -375.844647        c -1.83
iter:  27 17:23:14  -375.325739        c -1.67
iter:  28 17:24:00  -377.196100        c -1.82
iter:  29 17:24:42  -377.983281        c -1.55
iter:  30 17:25:23  -375.717525        c -1.44
iter:  31 17:26:17  -375.162567        c -1.73
iter:  32 17:27:05  -375.003729        c -1.90
iter:  33 17:27:52  -374.982435        c -2.00
iter:  34 17:28:36  -374.979603        c -2.05
iter:  35 17:29:22  -375.110377        c -2.07
iter:  36 17:30:08  -377.306197        c -1.98
iter:  37 17:30:55  -376.829352        c -1.52
iter:  38 17:31:35  -375.339841        c -1.56
iter:  39 17:32:19  -374.919627        c -1.87
iter:  40 17:33:12  -374.901148        c -2.19
iter:  41 17:33:53  -374.894461        c -2.24
iter:  42 17:34:34  -375.023949        c -2.26
iter:  43 17:35:17  -375.491803        c -2.09
iter:  44 17:36:02  -375.908574        c -1.79
iter:  45 17:36:47  -375.098670        c -1.67
iter:  46 17:37:32  -374.894429        c -1.99
iter:  47 17:38:13  -374.857721        c -2.30
iter:  48 17:38:58  -374.850888        c -2.50
iter:  49 17:39:46  -374.848202        c -2.56
iter:  50 17:40:33  -374.938134        c -2.58
iter:  51 17:41:30  -374.910768        c -2.22
iter:  52 17:42:14  -374.848189        c -2.34
iter:  53 17:42:59  -374.976226        c -2.61
iter:  54 17:43:44  -374.854983        c -2.08
iter:  55 17:44:25  -374.837700        c -2.65
iter:  56 17:45:09  -374.837747        c -3.00
iter:  57 17:45:54  -374.835655c       c -3.03
iter:  58 17:46:41  -374.835664c       c -3.11
iter:  59 17:47:24  -374.844064        c -3.07
iter:  60 17:48:15  -374.835221        c -2.87
iter:  61 17:48:59  -374.837053        c -2.91
iter:  62 17:49:40  -374.841046        c -2.94
iter:  63 17:50:23  -374.835193        c -2.70
iter:  64 17:51:04  -374.835246        c -3.26
iter:  65 17:51:46  -374.834427c       c -3.33
iter:  66 17:52:27  -374.837458c       c -3.35
iter:  67 17:53:08  -374.834269c       c -3.17
iter:  68 17:53:54  -374.841610        c -3.29
iter:  69 17:54:35  -374.833657        c -2.78
iter:  70 17:55:26  -374.834464        c -3.15
iter:  71 17:56:11  -374.835242c       c -3.32
iter:  72 17:56:59  -374.833988c       c -3.44
iter:  73 17:57:40  -374.834732c       c -3.54
iter:  74 17:58:27  -374.834947c       c -3.54
iter:  75 17:59:09  -374.835801c       c -3.20
iter:  76 17:59:58  -374.834399c       c -3.36
iter:  77 18:00:41  -374.833026c       c -3.49
iter:  78 18:01:27  -374.836386c       c -3.40
iter:  79 18:02:12  -374.834233c       c -3.33
iter:  80 18:02:57  -374.834395c       c -3.68
iter:  81 18:03:46  -374.834127c       c -3.71
iter:  82 18:04:33  -374.834349c       c -3.73
iter:  83 18:05:18  -374.834809c       c -3.77
iter:  84 18:05:59  -374.832742c       c -3.73
iter:  85 18:06:40  -374.834594c       c -3.33
iter:  86 18:07:24  -374.834132c       c -3.59
iter:  87 18:08:08  -374.834598c       c -3.56
iter:  88 18:08:49  -374.834241c       c -3.65
iter:  89 18:09:41  -374.834252c       c -3.95
iter:  90 18:10:22  -374.833773c       c -3.94
iter:  91 18:11:03  -374.834402c       c -3.84
iter:  92 18:11:45  -374.834586c       c -3.96
iter:  93 18:12:25  -374.833986c       c -3.66
iter:  94 18:13:06  -374.834175c       c -3.57
iter:  95 18:13:49  -374.834122c       c -3.97
iter:  96 18:14:39  -374.834710c       c -3.99
iter:  97 18:15:22  -374.833956c       c -3.84
iter:  98 18:16:03  -374.834077c       c -4.05c

Converged after 98 iterations.

Dipole moment: (-1.140542, -31.562314, -1.022384) |e|*Ang

Energy contributions relative to reference atoms: (reference = -3320484.948607)

Kinetic:       -781.722453
Potential:     +522.873862
External:        +0.000000
XC:            -117.451906
Entropy (-ST):   -4.294266
Local:           +3.613553
SIC:             +0.000000
--------------------------
Free energy:   -376.981210
Extrapolated:  -374.834077

Showing only first 2 kpts
 Kpt  Band  Eigenvalues  Occupancy
  0   253     -3.30128    1.38258
  0   254     -3.28119    1.29374
  0   255     -3.27816    1.27981
  0   256     -3.26745    1.22976

  1   253     -3.17663    0.78335
  1   254     -3.16503    0.72882
  1   255     -3.16173    0.71357
  1   256     -3.14882    0.65549


Fermi level: -3.22066

No gap
No difference between direct/indirect transitions
Timing:                              incl.     excl.
-----------------------------------------------------------
Basic WFS set positions:             0.001     0.001   0.0% |
Basis functions set positions:       0.196     0.196   0.0% |
LCAO WFS Initialize:                 1.043     0.119   0.0% |
 Hamiltonian:                        0.924     0.000   0.0% |
  Atomic:                            0.172     0.002   0.0% |
   XC Correction:                    0.170     0.170   0.0% |
  Calculate atomic Hamiltonians:     0.021     0.021   0.0% |
  Communicate:                       0.000     0.000   0.0% |
  Hartree integrate/restrict:        0.057     0.057   0.0% |
  Initialize Hamiltonian:            0.000     0.000   0.0% |
  Poisson:                           0.482     0.035   0.0% |
   Communicate from 1D:              0.055     0.055   0.0% |
   Communicate from 2D:              0.055     0.055   0.0% |
   Communicate to 1D:                0.036     0.036   0.0% |
   Communicate to 2D:                0.054     0.054   0.0% |
   FFT 1D:                           0.062     0.062   0.0% |
   FFT 2D:                           0.186     0.186   0.0% |
  XC 3D grid:                        0.183     0.183   0.0% |
  vbar:                              0.010     0.010   0.0% |
P tci:                               2.052     2.052   0.0% |
SCF-cycle:                        4365.860     0.147   0.0% |
 Density:                         2812.171     0.002   0.0% |
  Atomic density matrices:           1.465     1.465   0.0% |
  Mix:                              14.843    14.843   0.3% |
  Multipole moments:                 0.033     0.033   0.0% |
  Normalize:                         0.071     0.071   0.0% |
  Pseudo density:                 2795.758     0.137   0.0% |
   Calculate density matrix:        13.202    13.202   0.3% |
   Construct density:             2782.418  2782.418  63.6% |------------------------|
   Symmetrize density:               0.002     0.002   0.0% |
 Hamiltonian:                       89.871     0.005   0.0% |
  Atomic:                           16.647     0.191   0.0% |
   XC Correction:                   16.456    16.456   0.4% |
  Calculate atomic Hamiltonians:     2.005     2.005   0.0% |
  Communicate:                       0.000     0.000   0.0% |
  Hartree integrate/restrict:        5.183     5.183   0.1% |
  Poisson:                          47.561     2.807   0.1% |
   Communicate from 1D:              5.263     5.263   0.1% |
   Communicate from 2D:              5.286     5.286   0.1% |
   Communicate to 1D:                3.508     3.508   0.1% |
   Communicate to 2D:                5.236     5.236   0.1% |
   FFT 1D:                           5.915     5.915   0.1% |
   FFT 2D:                          19.545    19.545   0.4% |
  XC 3D grid:                       17.815    17.815   0.4% |
  vbar:                              0.655     0.655   0.0% |
 LCAO eigensolver:                1463.671     3.442   0.1% |
  Calculate projections:            87.181    87.181   2.0% ||
  DenseAtomicCorrection:           401.701   401.701   9.2% |---|
  Distribute overlap matrix:         6.993     6.993   0.2% |
  Orbital Layouts:                 546.623   546.623  12.5% |----|
  Potential matrix:                400.833   400.833   9.2% |---|
  Sum over cells:                   16.898    16.898   0.4% |
ST tci:                              0.488     0.488   0.0% |
Set symmetry:                        0.000     0.000   0.0% |
TCI: Evaluate splines:               0.165     0.165   0.0% |
mktci:                               0.008     0.008   0.0% |
Other:                               6.450     6.450   0.1% |
-----------------------------------------------------------
Total:                                      4376.262 100.0%

Memory usage: 4.49 GiB
Date: Sat Feb 21 18:16:03 2026
