
  ___ ___ ___ _ _ _  
 |   |   |_  | | | | 
 | | | | | . | | | | 
 |__ |  _|___|_____|  25.7.0
 |___|_|             

User:   ubuntu@third-test
Date:   Tue Feb 17 03:51:57 2026
Arch:   x86_64
Pid:    2718679
CWD:    /mnt/vdd1/work/cemea/fairchem/src/fairchem/applications/ocx/mo_h_adsorption_workflow
Python: 3.10.16
gpaw:   /home/ubuntu/.pyenv/versions/cemea-env/lib/python3.10/site-packages/gpaw
_gpaw:  /home/ubuntu/.pyenv/versions/cemea-env/lib/python3.10/site-packages/
        _gpaw.cpython-310-x86_64-linux-gnu.so
ase:    /home/ubuntu/.pyenv/versions/cemea-env/lib/python3.10/site-packages/ase (version 3.27.0)
numpy:  /home/ubuntu/.pyenv/versions/cemea-env/lib/python3.10/site-packages/numpy (version 2.2.6)
scipy:  /home/ubuntu/.pyenv/versions/cemea-env/lib/python3.10/site-packages/scipy (version 1.15.3)
libxc:  2.x.y
units:  Angstrom and eV
cores: 1
OpenMP: False
OMP_NUM_THREADS: 1

Input parameters:
  basis: dzp
  convergence: {density: 0.0001,
                eigenstates: 1e-05,
                energy: 1e-05}
  kpts: [4 4 1]
  mode: lcao

System changes: positions, numbers, cell, pbc, initial_charges, initial_magmoms 

Initialize ...

species:
  Mo:
    name: Molybdenum
    id: ac24daaf086600a00ce6d19a74574df1
    Z: 42.0
    valence: 14
    core: 28
    charge: 0.0
    file: /home/ubuntu/.pyenv/versions/cemea-env/lib/python3.10/site-packages/gpaw_data/setups/Mo.LDA.gz
    compensation charges: {type: gauss,
                           rc: 0.38,
                           lmax: 2}
    cutoffs: {filter: 2.16,
              core: 1.42}
    projectors:
      #              energy  rcut
      - 4s(2.00)   -64.384   1.238
      - 5s(1.00)    -4.319   1.238
      - 4p(6.00)   -38.595   1.296
      - 5p(0.00)    -1.161   1.296
      - 4d(5.00)    -3.933   1.296
      -  d          23.278   1.296
  
    # LCAO basis set for Mo:
    #   Name: dzp
    #   File: /home/ubuntu/.pyenv/versions/cemea-env/lib/python3.10/site-packages/gpaw_data/setups/Mo.dzp.basis.gz
    #   Number of radial functions: 11
    #   Number of spherical harmonics: 29
    #     l=0, rc=3.5469 Bohr: 4s-sz confined orbital
    #     l=0, rc=10.0469 Bohr: 5s-sz confined orbital
    #     l=1, rc=4.0781 Bohr: 4p-sz confined orbital
    #     l=1, rc=14.0938 Bohr: 5p-sz confined orbital
    #     l=2, rc=7.2031 Bohr: 4d-sz confined orbital
    #     l=0, rc=2.1250 Bohr: 4s-dz split-valence wave
    #     l=0, rc=6.1250 Bohr: 5s-dz split-valence wave
    #     l=1, rc=2.5469 Bohr: 4p-dz split-valence wave
    #     l=1, rc=8.7656 Bohr: 5p-dz split-valence wave
    #     l=2, rc=4.2344 Bohr: 4d-dz split-valence wave
    #     l=1, rc=10.0469 Bohr: p-type Gaussian polarization
    #   Number of RI-basis functions 0

  Au:
    name: Gold
    id: a44207148b704df7bec07bf25e8feca8
    Z: 79.0
    valence: 11
    core: 68
    charge: 0.0
    file: /home/ubuntu/.pyenv/versions/cemea-env/lib/python3.10/site-packages/gpaw_data/setups/Au.LDA.gz
    compensation charges: {type: gauss,
                           rc: 0.42,
                           lmax: 2}
    cutoffs: {filter: 2.33,
              core: 2.81}
    projectors:
      #              energy  rcut
      - 6s(1.00)    -6.048   1.323
      - 6p(0.00)    -0.888   1.323
      - 5d(10.00)    -7.129   1.323
      -  s          21.163   1.323
      -  p          26.323   1.323
      -  d          20.082   1.323
  
    # LCAO basis set for Au:
    #   Name: dzp
    #   File: /home/ubuntu/.pyenv/versions/cemea-env/lib/python3.10/site-packages/gpaw_data/setups/Au.dzp.basis.gz
    #   Number of radial functions: 5
    #   Number of spherical harmonics: 15
    #     l=0, rc=8.5938 Bohr: 6s-sz confined orbital
    #     l=2, rc=5.9219 Bohr: 5d-sz confined orbital
    #     l=0, rc=4.9844 Bohr: 6s-dz split-valence wave
    #     l=2, rc=3.5156 Bohr: 5d-dz split-valence wave
    #     l=1, rc=8.5938 Bohr: p-type Gaussian polarization
    #   Number of RI-basis functions 0

  N:
    name: Nitrogen
    id: c467cdfa1b75f62c8f7a0469921b1cfb
    Z: 7.0
    valence: 5
    core: 2
    charge: 0.0
    file: /home/ubuntu/.pyenv/versions/cemea-env/lib/python3.10/site-packages/gpaw_data/setups/N.LDA.gz
    compensation charges: {type: gauss,
                           rc: 0.18,
                           lmax: 2}
    cutoffs: {filter: 1.11,
              core: 0.96}
    projectors:
      #              energy  rcut
      - 2s(2.00)   -18.420   0.603
      - 2p(3.00)    -7.237   0.529
      -  s           8.791   0.603
      -  p          19.974   0.529
      -  d           0.000   0.577
  
    # LCAO basis set for N:
    #   Name: dzp
    #   File: /home/ubuntu/.pyenv/versions/cemea-env/lib/python3.10/site-packages/gpaw_data/setups/N.dzp.basis.gz
    #   Number of radial functions: 5
    #   Number of spherical harmonics: 13
    #     l=0, rc=4.8594 Bohr: 2s-sz confined orbital
    #     l=1, rc=6.0625 Bohr: 2p-sz confined orbital
    #     l=0, rc=2.6094 Bohr: 2s-dz split-valence wave
    #     l=1, rc=3.2656 Bohr: 2p-dz split-valence wave
    #     l=2, rc=6.0625 Bohr: d-type Gaussian polarization
    #   Number of RI-basis functions 0

Reference energy: -1292335.761973  # eV

Spin-paired calculation

Convergence criteria:
 Maximum [total energy] change in last 3 cyles: 1e-05 eV / valence electron
 Maximum integral of absolute [dens]ity change: 0.0001 electrons / valence electron
 Maximum integral of absolute [eigenst]ate change: 1e-05 eV^2 / valence electron
 Maximum number of scf [iter]ations: 333
 (Square brackets indicate name in SCF output, whereas a 'c' in
 the SCF output indicates the quantity has converged.)

Symmetries present (total): 2

  ( 1  0  0)  ( 0  1  0)
  ( 0  1  0)  ( 1  0  0)
  ( 0  0  1)  ( 0  0  1)

16 k-points: 4 x 4 x 1 Monkhorst-Pack grid
6 k-points in the irreducible part of the Brillouin zone
       k-points in crystal coordinates                weights
   0:     0.12500000   -0.12500000    0.00000000          2/16
   1:     0.12500000    0.12500000    0.00000000          2/16
   2:     0.37500000   -0.37500000    0.00000000          2/16
   3:     0.37500000   -0.12500000    0.00000000          4/16
   4:     0.37500000    0.12500000    0.00000000          4/16
   5:     0.37500000    0.37500000    0.00000000          2/16

Wave functions: LCAO
  Diagonalizer: Serial LAPACK
  Atomic Correction: dense with blas
  Data-type: complex
 

Occupation numbers: Fermi-Dirac:
  width: 0.1000  # eV
 

Eigensolver
   LCAO using direct dense diagonalizer 

Densities:
  Coarse grid: 40*40*92 grid
  Fine grid: 80*80*184 grid
  Total Charge: 0.000000 

Density mixing:
  Method: separate
  Backend: pulay
  Linear mixing parameter: 0.05
  old densities: 5
  Damping of long wavelength oscillations: 50 

Hamiltonian:
  XC and Coulomb potentials evaluated on a 80*80*184 grid
  Using the LDA Exchange-Correlation functional
  Interpolation: tri-quintic (5. degree polynomial)
  Poisson solver: FastPoissonSolver using
    Stencil: 6*3+1=19 point O(h^6) finite-difference Laplacian
    FFT axes: [np.int64(0), np.int64(1), np.int64(2)]
    FST axes: []
 

Memory estimate:
  Process memory now: 1340.54 MiB
  Calculator: 191.95 MiB
    Density: 80.54 MiB
      Arrays: 29.20 MiB
      Localized functions: 40.11 MiB
      Mixer: 11.23 MiB
    Hamiltonian: 21.75 MiB
      Arrays: 19.09 MiB
      XC: 0.00 MiB
      Poisson: 0.00 MiB
      vbar: 2.66 MiB
    Wavefunctions: 89.66 MiB
      C [qnM]: 2.03 MiB
      S, T [2 x qmm]: 13.35 MiB
      P [aqMi]: 0.30 MiB
      BasisFunctions: 73.98 MiB
      Eigensolver: 0.00 MiB

Total number of cores used: 1

Number of atoms: 12
Number of atomic orbitals: 270
Number of bands in calculation: 82
Number of valence electrons: 129
Bands to converge: occupied

... initialized

Initializing position-dependent things.

Density initialized from atomic densities
      .-------------------.  
     /|                   |  
    / |                   |  
   /  |                   |  
  /   |                   |  
 *    |                   |  
 |    |                   |  
 |    |                   |  
 |    |                   |  
 |    |                   |  
 |    |                   |  
 |    |   Mo        Mo    |  
 |    |                   |  
 |    |Au        Mo       |  
 |    |   N         N     |  
 |  Mo|       Mo          |  
 |    |N         N        |  
 Mo   |    Mo             |  
 |    |                   |  
 |    |                   |  
 |    |                   |  
 |    |                   |  
 |    .-------------------.  
 |   /                   /   
 |  /                   /    
 | /                   /     
 |/                   /      
 *-------------------*       

Atomic positions and initial magnetic moments

Positions:
   0 Mo     0.000000    0.000000    8.000000    ( 0.0000,  0.0000,  0.0000)
   1 Au     2.080000    2.080000   10.080000    ( 0.0000,  0.0000,  0.0000)
   2 N      2.080000    2.080000    8.000000    ( 0.0000,  0.0000,  0.0000)
   3 Mo     0.000000    4.160000    8.000000    ( 0.0000,  0.0000,  0.0000)
   4 Mo     2.080000    6.240000   10.080000    ( 0.0000,  0.0000,  0.0000)
   5 N      2.080000    6.240000    8.000000    ( 0.0000,  0.0000,  0.0000)
   6 Mo     4.160000    0.000000    8.000000    ( 0.0000,  0.0000,  0.0000)
   7 Mo     6.240000    2.080000   10.080000    ( 0.0000,  0.0000,  0.0000)
   8 N      6.240000    2.080000    8.000000    ( 0.0000,  0.0000,  0.0000)
   9 Mo     4.160000    4.160000    8.000000    ( 0.0000,  0.0000,  0.0000)
  10 Mo     6.240000    6.240000   10.080000    ( 0.0000,  0.0000,  0.0000)
  11 N      6.240000    6.240000    8.000000    ( 0.0000,  0.0000,  0.0000)

Unit cell:
           periodic     x           y           z      points  spacing
  1. axis:    yes    8.320000    0.000000    0.000000    40     0.2080
  2. axis:    yes    0.000000    8.320000    0.000000    40     0.2080
  3. axis:    yes    0.000000    0.000000   18.080000    92     0.1965

  Lengths:   8.320000   8.320000  18.080000
  Angles:   90.000000  90.000000  90.000000

Effective grid spacing dv^(1/3) = 0.2041

     iter     time        total  log10-change:
                         energy   eigst   dens
iter:   1 03:53:12   -84.379002        c
iter:   2 03:54:18   -79.027847        c -0.89
iter:   3 03:55:32   -76.732816        c -1.00
iter:   4 03:56:35   -72.898562        c -1.01
iter:   5 03:57:49   -71.936810        c -1.18
iter:   6 03:59:02   -70.082192        c -1.23
iter:   7 04:00:24   -69.547310        c -1.43
iter:   8 04:01:41   -69.493384        c -1.76
iter:   9 04:02:56   -69.528920        c -1.85
iter:  10 04:04:13   -69.452690        c -1.79
iter:  11 04:05:31   -69.384794        c -1.97
iter:  12 04:06:35   -69.359732        c -2.07
iter:  13 04:07:46   -69.356415        c -2.24
iter:  14 04:09:07   -69.354705        c -2.34
iter:  15 04:10:21   -69.354832        c -2.47
iter:  16 04:11:41   -69.351135        c -2.54
iter:  17 04:13:00   -69.348616        c -2.59
iter:  18 04:14:08   -69.347987        c -2.96
iter:  19 04:15:32   -69.347476c       c -3.07
iter:  20 04:16:55   -69.347403c       c -3.18
iter:  21 04:18:14   -69.347565c       c -3.30
iter:  22 04:19:32   -69.347590c       c -3.38
iter:  23 04:20:42   -69.347691c       c -3.34
iter:  24 04:21:52   -69.347938c       c -3.46
iter:  25 04:23:08   -69.348156c       c -3.56
iter:  26 04:24:27   -69.348244c       c -3.68
iter:  27 04:25:30   -69.348311c       c -3.67
iter:  28 04:26:46   -69.348253c       c -3.77
iter:  29 04:28:04   -69.348407c       c -3.79
iter:  30 04:29:04   -69.348381c       c -3.92
iter:  31 04:30:23   -69.348373c       c -4.08c

Converged after 31 iterations.

Dipole moment: (-5.344704, -5.344704, 0.420261) |e|*Ang

Energy contributions relative to reference atoms: (reference = -1292335.761973)

Kinetic:       -192.540821
Potential:     +132.683975
External:        +0.000000
XC:             -10.858865
Entropy (-ST):   -1.417373
Local:           +2.076025
SIC:             +0.000000
--------------------------
Free energy:    -70.057059
Extrapolated:   -69.348373

Showing only first 2 kpts
 Kpt  Band  Eigenvalues  Occupancy
  0    62     -2.16104    1.31038
  0    63     -2.13406    1.18395
  0    64     -2.08249    0.92835
  0    65     -2.07750    0.90358

  1    62     -2.16104    1.31038
  1    63     -2.13406    1.18395
  1    64     -2.08249    0.92835
  1    65     -2.07750    0.90358


Fermi level: -2.09685

No gap
No difference between direct/indirect transitions
Timing:                              incl.     excl.
-----------------------------------------------------------
Basic WFS set positions:             0.000     0.000   0.0% |
Basis functions set positions:       0.078     0.078   0.0% |
LCAO WFS Initialize:                 0.366     0.052   0.0% |
 Hamiltonian:                        0.314     0.000   0.0% |
  Atomic:                            0.078     0.001   0.0% |
   XC Correction:                    0.077     0.077   0.0% |
  Calculate atomic Hamiltonians:     0.008     0.008   0.0% |
  Communicate:                       0.000     0.000   0.0% |
  Hartree integrate/restrict:        0.030     0.030   0.0% |
  Initialize Hamiltonian:            0.001     0.001   0.0% |
  Poisson:                           0.123     0.005   0.0% |
   Communicate from 1D:              0.019     0.019   0.0% |
   Communicate from 2D:              0.017     0.017   0.0% |
   Communicate to 1D:                0.018     0.018   0.0% |
   Communicate to 2D:                0.021     0.021   0.0% |
   FFT 1D:                           0.017     0.017   0.0% |
   FFT 2D:                           0.026     0.026   0.0% |
  XC 3D grid:                        0.057     0.057   0.0% |
  vbar:                              0.016     0.016   0.0% |
P tci:                               0.412     0.412   0.0% |
SCF-cycle:                        2303.213     0.061   0.0% |
 Density:                          242.585     0.001   0.0% |
  Atomic density matrices:           0.085     0.085   0.0% |
  Mix:                               9.627     9.627   0.4% |
  Multipole moments:                 0.007     0.007   0.0% |
  Normalize:                         0.003     0.003   0.0% |
  Pseudo density:                  232.862     0.018   0.0% |
   Calculate density matrix:         5.430     5.430   0.2% |
   Construct density:              227.291   227.291   9.9% |---|
   Symmetrize density:               0.123     0.123   0.0% |
 Hamiltonian:                       10.591     0.003   0.0% |
  Atomic:                            2.464     0.033   0.0% |
   XC Correction:                    2.431     2.431   0.1% |
  Calculate atomic Hamiltonians:     0.239     0.239   0.0% |
  Communicate:                       0.000     0.000   0.0% |
  Hartree integrate/restrict:        1.105     1.105   0.0% |
  Poisson:                           4.101     0.204   0.0% |
   Communicate from 1D:              0.618     0.618   0.0% |
   Communicate from 2D:              0.567     0.567   0.0% |
   Communicate to 1D:                0.504     0.504   0.0% |
   Communicate to 2D:                0.671     0.671   0.0% |
   FFT 1D:                           0.562     0.562   0.0% |
   FFT 2D:                           0.976     0.976   0.0% |
  XC 3D grid:                        2.130     2.130   0.1% |
  vbar:                              0.549     0.549   0.0% |
 LCAO eigensolver:                2049.976     0.050   0.0% |
  Calculate projections:             6.075     6.075   0.3% |
  DenseAtomicCorrection:            21.707    21.707   0.9% |
  Distribute overlap matrix:         0.028     0.028   0.0% |
  Orbital Layouts:                1960.306  1960.306  85.0% |---------------------------------|
  Potential matrix:                 56.662    56.662   2.5% ||
  Sum over cells:                    5.148     5.148   0.2% |
ST tci:                              0.264     0.264   0.0% |
Set symmetry:                        0.001     0.001   0.0% |
TCI: Evaluate splines:               0.502     0.502   0.0% |
mktci:                               0.006     0.006   0.0% |
Other:                               0.907     0.907   0.0% |
-----------------------------------------------------------
Total:                                      2305.749 100.0%

Memory usage: 1.31 GiB
Date: Tue Feb 17 04:30:23 2026
