
  ___ ___ ___ _ _ _  
 |   |   |_  | | | | 
 | | | | | . | | | | 
 |__ |  _|___|_____|  25.7.0
 |___|_|             

User:   mikei@Z790-AORUS-ELITE-AX
Date:   Sat Feb 21 21:39:28 2026
Arch:   x86_64
Pid:    89048
CWD:    /home/mikei/Dokumenty/code/cemea/ocx
Python: 3.10.16
gpaw:   /home/mikei/.pyenv/versions/cemea-env/lib/python3.10/site-packages/gpaw
_gpaw:  /home/mikei/.pyenv/versions/cemea-env/lib/python3.10/site-packages/
        _gpaw.cpython-310-x86_64-linux-gnu.so
ase:    /home/mikei/.pyenv/versions/cemea-env/lib/python3.10/site-packages/ase (version 3.27.0)
numpy:  /home/mikei/.pyenv/versions/cemea-env/lib/python3.10/site-packages/numpy (version 2.2.6)
scipy:  /home/mikei/.pyenv/versions/cemea-env/lib/python3.10/site-packages/scipy (version 1.15.3)
libxc:  2.x.y
units:  Angstrom and eV
cores: 1
OpenMP: False
OMP_NUM_THREADS: 1

Input parameters:
  basis: dzp
  convergence: {density: 0.0001,
                eigenstates: 1e-05,
                energy: 1e-05}
  kpts: [4 4 1]
  mode: lcao

System changes: positions, numbers, cell, pbc, initial_charges, initial_magmoms 

Initialize ...

species:
  Ni:
    name: Nickel
    id: 1802175e8de9ea26d9f4394ec1a7d564
    Z: 28.0
    valence: 16
    core: 12
    charge: 0.0
    file: /home/mikei/.pyenv/versions/cemea-env/lib/python3.10/site-packages/gpaw_data/setups/Ni.LDA.gz
    compensation charges: {type: gauss,
                           rc: 0.36,
                           lmax: 2}
    cutoffs: {filter: 2.14,
              core: 1.98}
    projectors:
      #              energy  rcut
      - 4s(2.00)    -5.858   1.164
      - 3p(6.00)   -71.266   1.207
      - 4p(0.00)    -1.338   1.207
      - 3d(8.00)    -9.141   1.138
      -  s          21.353   1.164
      -  d          18.071   1.138
  
    # LCAO basis set for Ni:
    #   Name: dzp
    #   File: /home/mikei/.pyenv/versions/cemea-env/lib/python3.10/site-packages/gpaw_data/setups/Ni.dzp.basis.gz
    #   Number of radial functions: 9
    #   Number of spherical harmonics: 27
    #     l=0, rc=8.5156 Bohr: 4s-sz confined orbital
    #     l=1, rc=2.9375 Bohr: 3p-sz confined orbital
    #     l=1, rc=12.4062 Bohr: 4p-sz confined orbital
    #     l=2, rc=4.6875 Bohr: 3d-sz confined orbital
    #     l=0, rc=4.9688 Bohr: 4s-dz split-valence wave
    #     l=1, rc=2.0781 Bohr: 3p-dz split-valence wave
    #     l=1, rc=7.5469 Bohr: 4p-dz split-valence wave
    #     l=2, rc=2.9375 Bohr: 3d-dz split-valence wave
    #     l=1, rc=8.5156 Bohr: p-type Gaussian polarization
    #   Number of RI-basis functions 0

  Mo:
    name: Molybdenum
    id: ac24daaf086600a00ce6d19a74574df1
    Z: 42.0
    valence: 14
    core: 28
    charge: 0.0
    file: /home/mikei/.pyenv/versions/cemea-env/lib/python3.10/site-packages/gpaw_data/setups/Mo.LDA.gz
    compensation charges: {type: gauss,
                           rc: 0.38,
                           lmax: 2}
    cutoffs: {filter: 2.16,
              core: 1.42}
    projectors:
      #              energy  rcut
      - 4s(2.00)   -64.384   1.238
      - 5s(1.00)    -4.319   1.238
      - 4p(6.00)   -38.595   1.296
      - 5p(0.00)    -1.161   1.296
      - 4d(5.00)    -3.933   1.296
      -  d          23.278   1.296
  
    # LCAO basis set for Mo:
    #   Name: dzp
    #   File: /home/mikei/.pyenv/versions/cemea-env/lib/python3.10/site-packages/gpaw_data/setups/Mo.dzp.basis.gz
    #   Number of radial functions: 11
    #   Number of spherical harmonics: 29
    #     l=0, rc=3.5469 Bohr: 4s-sz confined orbital
    #     l=0, rc=10.0469 Bohr: 5s-sz confined orbital
    #     l=1, rc=4.0781 Bohr: 4p-sz confined orbital
    #     l=1, rc=14.0938 Bohr: 5p-sz confined orbital
    #     l=2, rc=7.2031 Bohr: 4d-sz confined orbital
    #     l=0, rc=2.1250 Bohr: 4s-dz split-valence wave
    #     l=0, rc=6.1250 Bohr: 5s-dz split-valence wave
    #     l=1, rc=2.5469 Bohr: 4p-dz split-valence wave
    #     l=1, rc=8.7656 Bohr: 5p-dz split-valence wave
    #     l=2, rc=4.2344 Bohr: 4d-dz split-valence wave
    #     l=1, rc=10.0469 Bohr: p-type Gaussian polarization
    #   Number of RI-basis functions 0

  C:
    name: Carbon
    id: d60576a1f549371a163e72552ca58787
    Z: 6.0
    valence: 4
    core: 2
    charge: 0.0
    file: /home/mikei/.pyenv/versions/cemea-env/lib/python3.10/site-packages/gpaw_data/setups/C.LDA.gz
    compensation charges: {type: gauss,
                           rc: 0.20,
                           lmax: 2}
    cutoffs: {filter: 1.14,
              core: 1.14}
    projectors:
      #              energy  rcut
      - 2s(2.00)   -13.639   0.635
      - 2p(2.00)    -5.414   0.635
      -  s          13.573   0.635
      -  p          21.797   0.635
      -  d           0.000   0.635
  
    # LCAO basis set for C:
    #   Name: dzp
    #   File: /home/mikei/.pyenv/versions/cemea-env/lib/python3.10/site-packages/gpaw_data/setups/C.dzp.basis.gz
    #   Number of radial functions: 5
    #   Number of spherical harmonics: 13
    #     l=0, rc=5.5469 Bohr: 2s-sz confined orbital
    #     l=1, rc=6.6719 Bohr: 2p-sz confined orbital
    #     l=0, rc=3.0312 Bohr: 2s-dz split-valence wave
    #     l=1, rc=3.7500 Bohr: 2p-dz split-valence wave
    #     l=2, rc=6.6719 Bohr: d-type Gaussian polarization
    #   Number of RI-basis functions 0

  Ag:
    name: Silver
    id: 5bcdc129af383d1b52b015d30ddad325
    Z: 47.0
    valence: 17
    core: 30
    charge: 0.0
    file: /home/mikei/.pyenv/versions/cemea-env/lib/python3.10/site-packages/gpaw_data/setups/Ag.LDA.gz
    compensation charges: {type: gauss,
                           rc: 0.40,
                           lmax: 2}
    cutoffs: {filter: 2.35,
              core: 2.19}
    projectors:
      #              energy  rcut
      - 5s(1.00)    -4.708   1.286
      - 4p(6.00)   -58.678   1.328
      - 5p(0.00)    -0.844   1.328
      - 4d(10.00)    -7.664   1.180
      -  s          22.503   1.286
      -  d          19.547   1.180
  
    # LCAO basis set for Ag:
    #   Name: dzp
    #   File: /home/mikei/.pyenv/versions/cemea-env/lib/python3.10/site-packages/gpaw_data/setups/Ag.dzp.basis.gz
    #   Number of radial functions: 9
    #   Number of spherical harmonics: 27
    #     l=0, rc=9.2812 Bohr: 5s-sz confined orbital
    #     l=1, rc=3.3750 Bohr: 4p-sz confined orbital
    #     l=1, rc=14.2344 Bohr: 5p-sz confined orbital
    #     l=2, rc=5.4531 Bohr: 4d-sz confined orbital
    #     l=0, rc=5.5156 Bohr: 5s-dz split-valence wave
    #     l=1, rc=2.3281 Bohr: 4p-dz split-valence wave
    #     l=1, rc=8.7656 Bohr: 5p-dz split-valence wave
    #     l=2, rc=3.2656 Bohr: 4d-dz split-valence wave
    #     l=1, rc=9.2812 Bohr: p-type Gaussian polarization
    #   Number of RI-basis functions 0

Reference energy: -2659984.230274  # eV

Spin-paired calculation

Convergence criteria:
 Maximum [total energy] change in last 3 cyles: 1e-05 eV / valence electron
 Maximum integral of absolute [dens]ity change: 0.0001 electrons / valence electron
 Maximum integral of absolute [eigenst]ate change: 1e-05 eV^2 / valence electron
 Maximum number of scf [iter]ations: 333
 (Square brackets indicate name in SCF output, whereas a 'c' in
 the SCF output indicates the quantity has converged.)

Symmetries present (total): 1

  ( 1  0  0)
  ( 0  1  0)
  ( 0  0  1)

16 k-points: 4 x 4 x 1 Monkhorst-Pack grid
8 k-points in the irreducible part of the Brillouin zone
       k-points in crystal coordinates                weights
   0:     0.12500000   -0.37500000    0.00000000          2/16
   1:     0.12500000   -0.12500000    0.00000000          2/16
   2:     0.12500000    0.12500000    0.00000000          2/16
   3:     0.12500000    0.37500000    0.00000000          2/16
   4:     0.37500000   -0.37500000    0.00000000          2/16
   5:     0.37500000   -0.12500000    0.00000000          2/16
   6:     0.37500000    0.12500000    0.00000000          2/16
   7:     0.37500000    0.37500000    0.00000000          2/16

Wave functions: LCAO
  Diagonalizer: Serial LAPACK
  Atomic Correction: dense with blas
  Data-type: complex
 

Occupation numbers: Fermi-Dirac:
  width: 0.1000  # eV
 

Eigensolver
   LCAO using direct dense diagonalizer 

Densities:
  Coarse grid: 36*36*128 grid
  Fine grid: 72*72*256 grid
  Total Charge: 0.000000 

Density mixing:
  Method: separate
  Backend: pulay
  Linear mixing parameter: 0.05
  old densities: 5
  Damping of long wavelength oscillations: 50 

Hamiltonian:
  XC and Coulomb potentials evaluated on a 72*72*256 grid
  Using the LDA Exchange-Correlation functional
  Interpolation: tri-quintic (5. degree polynomial)
  Poisson solver: FastPoissonSolver using
    Stencil: 6*3+1=19 point O(h^6) finite-difference Laplacian
    FFT axes: [np.int64(0), np.int64(1), np.int64(2)]
    FST axes: []
 

Memory estimate:
  Process memory now: 4595.48 MiB
  Calculator: 1071.23 MiB
    Density: 232.00 MiB
      Arrays: 32.91 MiB
      Localized functions: 186.44 MiB
      Mixer: 12.66 MiB
    Hamiltonian: 35.37 MiB
      Arrays: 21.52 MiB
      XC: 0.00 MiB
      Poisson: 0.00 MiB
      vbar: 13.85 MiB
    Wavefunctions: 803.86 MiB
      C [qnM]: 71.48 MiB
      S, T [2 x qmm]: 418.97 MiB
      P [aqMi]: 8.80 MiB
      BasisFunctions: 304.61 MiB
      Eigensolver: 0.00 MiB

Total number of cores used: 1

Number of atoms: 50
Number of atomic orbitals: 1310
Number of bands in calculation: 447
Number of valence electrons: 738
Bands to converge: occupied

... initialized

Initializing position-dependent things.

Density initialized from atomic densities
      .-----------------.  
     /|                 |  
    / |                 |  
   /  |                 |  
  /   |                 |  
 *    |                 |  
 |    |                 |  
 |    |                 |  
 |    |                 |  
 |    |                 |  
 |    | Ag    Ag        |  
 |    |   Mo        Mo  |  
 |    |                 |  
 |    |Mo C      Mo C   |  
 |  Mo|       Mo        |  
 |    |                 |  
 |    |C         C      |  
 Mo Ni|   NMo   Ni      |  
 | Ni | NNi   NNi   Ni  |  
 |    |                 |  
 Ni   NNi   NNi   Ni    |  
 |  NNi   NNi   NNi     |  
 | Ni | NNi   NNi   Ni  |  
 |    |                 |  
 Ni   NNi   NNi   Ni    |  
 |   Ni    Ni    Ni     |  
 |    |                 |  
 |    |                 |  
 |    |                 |  
 |    |                 |  
 |    |                 |  
 |    .-----------------.  
 |   /                 /   
 |  /                 /    
 | /                 /     
 |/                 /      
 *-----------------*       

Atomic positions and initial magnetic moments

Positions:
   0 Ni     1.244508    1.244508    8.000000    ( 0.0000,  0.0000,  0.0000)
   1 Ni     3.733524    1.244508    8.000000    ( 0.0000,  0.0000,  0.0000)
   2 Ni     6.222540    1.244508    8.000000    ( 0.0000,  0.0000,  0.0000)
   3 Ni     1.244508    3.733524    8.000000    ( 0.0000,  0.0000,  0.0000)
   4 Ni     3.733524    3.733524    8.000000    ( 0.0000,  0.0000,  0.0000)
   5 Ni     6.222540    3.733524    8.000000    ( 0.0000,  0.0000,  0.0000)
   6 Ni     1.244508    6.222540    8.000000    ( 0.0000,  0.0000,  0.0000)
   7 Ni     3.733524    6.222540    8.000000    ( 0.0000,  0.0000,  0.0000)
   8 Ni     6.222540    6.222540    8.000000    ( 0.0000,  0.0000,  0.0000)
   9 Ni     0.000000    0.000000    9.760000    ( 0.0000,  0.0000,  0.0000)
  10 Ni     2.489016    0.000000    9.760000    ( 0.0000,  0.0000,  0.0000)
  11 Ni     4.978032    0.000000    9.760000    ( 0.0000,  0.0000,  0.0000)
  12 Ni     0.000000    2.489016    9.760000    ( 0.0000,  0.0000,  0.0000)
  13 Ni     2.489016    2.489016    9.760000    ( 0.0000,  0.0000,  0.0000)
  14 Ni     4.978032    2.489016    9.760000    ( 0.0000,  0.0000,  0.0000)
  15 Ni     0.000000    4.978032    9.760000    ( 0.0000,  0.0000,  0.0000)
  16 Ni     2.489016    4.978032    9.760000    ( 0.0000,  0.0000,  0.0000)
  17 Ni     4.978032    4.978032    9.760000    ( 0.0000,  0.0000,  0.0000)
  18 Ni     1.244508    1.244508   11.520000    ( 0.0000,  0.0000,  0.0000)
  19 Ni     3.733524    1.244508   11.520000    ( 0.0000,  0.0000,  0.0000)
  20 Ni     6.222540    1.244508   11.520000    ( 0.0000,  0.0000,  0.0000)
  21 Ni     1.244508    3.733524   11.520000    ( 0.0000,  0.0000,  0.0000)
  22 Ni     3.733524    3.733524   11.520000    ( 0.0000,  0.0000,  0.0000)
  23 Ni     6.222540    3.733524   11.520000    ( 0.0000,  0.0000,  0.0000)
  24 Ni     1.244508    6.222540   11.520000    ( 0.0000,  0.0000,  0.0000)
  25 Ni     3.733524    6.222540   11.520000    ( 0.0000,  0.0000,  0.0000)
  26 Ni     6.222540    6.222540   11.520000    ( 0.0000,  0.0000,  0.0000)
  27 Ni     0.000000    0.000000   13.280000    ( 0.0000,  0.0000,  0.0000)
  28 Ni     2.489016    0.000000   13.280000    ( 0.0000,  0.0000,  0.0000)
  29 Ni     4.978032    0.000000   13.280000    ( 0.0000,  0.0000,  0.0000)
  30 Ni     0.000000    2.489016   13.280000    ( 0.0000,  0.0000,  0.0000)
  31 Ni     2.489016    2.489016   13.280000    ( 0.0000,  0.0000,  0.0000)
  32 Ni     4.978032    2.489016   13.280000    ( 0.0000,  0.0000,  0.0000)
  33 Ni     0.000000    4.978032   13.280000    ( 0.0000,  0.0000,  0.0000)
  34 Ni     2.489016    4.978032   13.280000    ( 0.0000,  0.0000,  0.0000)
  35 Ni     4.978032    4.978032   13.280000    ( 0.0000,  0.0000,  0.0000)
  36 Mo     0.000000    0.000000   15.480000    ( 0.0000,  0.0000,  0.0000)
  37 Mo     2.060000    2.060000   17.540000    ( 0.0000,  0.0000,  0.0000)
  38 C      2.060000    2.060000   15.480000    ( 0.0000,  0.0000,  0.0000)
  39 Mo     0.000000    4.120000   15.480000    ( 0.0000,  0.0000,  0.0000)
  40 Mo     2.060000    6.180000   17.540000    ( 0.0000,  0.0000,  0.0000)
  41 C      2.060000    6.180000   15.480000    ( 0.0000,  0.0000,  0.0000)
  42 Mo     4.120000    0.000000   15.480000    ( 0.0000,  0.0000,  0.0000)
  43 Mo     6.180000    2.060000   17.540000    ( 0.0000,  0.0000,  0.0000)
  44 C      6.180000    2.060000   15.480000    ( 0.0000,  0.0000,  0.0000)
  45 Mo     4.120000    4.120000   15.480000    ( 0.0000,  0.0000,  0.0000)
  46 Mo     6.180000    6.180000   17.540000    ( 0.0000,  0.0000,  0.0000)
  47 C      6.180000    6.180000   15.480000    ( 0.0000,  0.0000,  0.0000)
  48 Ag     1.991786    3.191786   19.340000    ( 0.0000,  0.0000,  0.0000)
  49 Ag     4.391786    3.191786   19.340000    ( 0.0000,  0.0000,  0.0000)

Unit cell:
           periodic     x           y           z      points  spacing
  1. axis:    yes    7.467048    0.000000    0.000000    36     0.2074
  2. axis:    yes    0.000000    7.467048    0.000000    36     0.2074
  3. axis:    yes    0.000000    0.000000   25.540000   128     0.1995

  Lengths:   7.467048   7.467048  25.540000
  Angles:   90.000000  90.000000  90.000000

Effective grid spacing dv^(1/3) = 0.2048

     iter     time        total  log10-change:
                         energy   eigst   dens
iter:   1 21:40:00 -1060.628621        c
iter:   2 21:41:32 -4324.856908        c -0.91
iter:   3 21:43:04  -625.299380        c -0.41
iter:   4 21:44:38  -429.094716        c -1.19
iter:   5 21:46:10  -398.491842        c -1.42
iter:   6 21:47:42  -395.771006        c -1.46
iter:   7 21:49:16  -386.871980        c -1.54
iter:   8 21:50:48  -413.936189        c -1.61
iter:   9 21:52:21  -391.237800        c -1.53
iter:  10 21:53:53  -396.433050        c -1.70
iter:  11 21:55:25  -385.985763        c -1.69
iter:  12 21:56:57  -389.946765        c -1.79
iter:  13 21:58:30  -383.022251        c -1.79
iter:  14 22:00:03  -388.291874        c -1.92
iter:  15 22:01:48  -404.626313        c -1.82
iter:  16 22:03:23  -381.007172        c -1.52
iter:  17 22:04:55  -381.496050        c -2.12
iter:  18 22:06:27  -380.629427        c -2.13
iter:  19 22:08:02  -379.073925        c -2.13
iter:  20 22:09:34  -380.085561        c -2.41
iter:  21 22:11:14  -379.437041        c -2.14
iter:  22 22:12:47  -379.097869        c -2.33
iter:  23 22:14:19  -379.183258        c -2.42
iter:  24 22:15:52  -379.122668        c -2.41
iter:  25 22:17:24  -379.049429        c -2.43
iter:  26 22:18:57  -379.088375        c -2.45
iter:  27 22:20:29  -378.797217        c -2.33
iter:  28 22:22:01  -379.190770        c -2.68
iter:  29 22:23:34  -378.966390        c -2.38
iter:  30 22:25:07  -379.109472        c -2.59
iter:  31 22:26:44  -378.798716        c -2.44
iter:  32 22:28:16  -378.850755        c -2.67
iter:  33 22:29:49  -378.890396        c -2.60
iter:  34 22:31:25  -379.320335        c -2.60
iter:  35 22:32:57  -378.741354        c -2.38
iter:  36 22:34:30  -378.792763        c -2.83
iter:  37 22:36:02  -378.786590        c -2.74
iter:  38 22:37:37  -378.810523        c -2.77
iter:  39 22:39:09  -378.725229        c -2.83
iter:  40 22:40:41  -378.934972        c -2.99
iter:  41 22:42:14  -378.745811        c -2.67
iter:  42 22:43:46  -378.748008        c -2.94
iter:  43 22:45:21  -378.739011        c -3.00
iter:  44 22:46:57  -378.731009        c -2.84
iter:  45 22:48:29  -378.718228        c -3.13
iter:  46 22:50:01  -378.746644        c -3.25
iter:  47 22:51:33  -378.747353        c -2.80
iter:  48 22:53:05  -378.702154        c -3.05
iter:  49 22:54:42  -378.709633        c -3.50
iter:  50 22:56:14  -378.701104        c -3.39
iter:  51 22:57:47  -378.702551        c -3.56
iter:  52 22:59:22  -378.697947c       c -3.51
iter:  53 23:00:58  -378.694495        c -3.80
iter:  54 23:02:30  -378.703735        c -3.32
iter:  55 23:04:05  -378.694101        c -3.55
iter:  56 23:05:37  -378.692390        c -4.09c
iter:  57 23:07:10  -378.692813c       c -3.87
iter:  58 23:08:48  -378.693252c       c -4.09c

Converged after 58 iterations.

Dipole moment: (-7.795573, -7.436979, 0.624048) |e|*Ang

Energy contributions relative to reference atoms: (reference = -2659984.230274)

Kinetic:        +30.874751
Potential:      -19.028954
External:        +0.000000
XC:            -387.329853
Entropy (-ST):   -3.761492
Local:           -1.328450
SIC:             +0.000000
--------------------------
Free energy:   -380.573998
Extrapolated:  -378.693252

Showing only first 2 kpts
 Kpt  Band  Eigenvalues  Occupancy
  0   367      0.89612    1.22008
  0   368      0.90421    1.18130
  0   369      0.92723    1.06810
  0   370      0.94192    0.99475

  1   367      0.87619    1.31260
  1   368      0.89716    1.21516
  1   369      0.90374    1.18355
  1   370      0.91442    1.13151


Fermi level: 0.94087

No gap
No difference between direct/indirect transitions
Timing:                              incl.     excl.
-----------------------------------------------------------
Basic WFS set positions:             0.000     0.000   0.0% |
Basis functions set positions:       0.182     0.182   0.0% |
LCAO WFS Initialize:                 0.412     0.092   0.0% |
 Hamiltonian:                        0.321     0.000   0.0% |
  Atomic:                            0.161     0.002   0.0% |
   XC Correction:                    0.159     0.159   0.0% |
  Calculate atomic Hamiltonians:     0.026     0.026   0.0% |
  Communicate:                       0.000     0.000   0.0% |
  Hartree integrate/restrict:        0.006     0.006   0.0% |
  Initialize Hamiltonian:            0.000     0.000   0.0% |
  Poisson:                           0.079     0.006   0.0% |
   Communicate from 1D:              0.008     0.008   0.0% |
   Communicate from 2D:              0.006     0.006   0.0% |
   Communicate to 1D:                0.010     0.010   0.0% |
   Communicate to 2D:                0.011     0.011   0.0% |
   FFT 1D:                           0.007     0.007   0.0% |
   FFT 2D:                           0.030     0.030   0.0% |
  XC 3D grid:                        0.046     0.046   0.0% |
  vbar:                              0.002     0.002   0.0% |
P tci:                               5.335     5.335   0.1% |
SCF-cycle:                        5347.056     0.158   0.0% |
 Density:                         4154.653     0.001   0.0% |
  Atomic density matrices:           1.113     1.113   0.0% |
  Mix:                               5.743     5.743   0.1% |
  Multipole moments:                 0.016     0.016   0.0% |
  Normalize:                         0.007     0.007   0.0% |
  Pseudo density:                 4147.773     0.022   0.0% |
   Calculate density matrix:         9.160     9.160   0.2% |
   Construct density:             4138.590  4138.590  77.2% |------------------------------|
   Symmetrize density:               0.001     0.001   0.0% |
 Hamiltonian:                       18.708     0.002   0.0% |
  Atomic:                            9.176     0.101   0.0% |
   XC Correction:                    9.074     9.074   0.2% |
  Calculate atomic Hamiltonians:     1.497     1.497   0.0% |
  Communicate:                       0.000     0.000   0.0% |
  Hartree integrate/restrict:        0.346     0.346   0.0% |
  Poisson:                           4.069     0.332   0.0% |
   Communicate from 1D:              0.452     0.452   0.0% |
   Communicate from 2D:              0.338     0.338   0.0% |
   Communicate to 1D:                0.415     0.415   0.0% |
   Communicate to 2D:                0.547     0.547   0.0% |
   FFT 1D:                           0.442     0.442   0.0% |
   FFT 2D:                           1.544     1.544   0.0% |
  XC 3D grid:                        3.215     3.215   0.1% |
  vbar:                              0.403     0.403   0.0% |
 LCAO eigensolver:                1173.537     1.772   0.0% |
  Calculate projections:            45.689    45.689   0.9% |
  DenseAtomicCorrection:           175.575   175.575   3.3% ||
  Distribute overlap matrix:         3.435     3.435   0.1% |
  Orbital Layouts:                 233.455   233.455   4.4% |-|
  Potential matrix:                639.541   639.541  11.9% |----|
  Sum over cells:                   74.071    74.071   1.4% ||
ST tci:                              2.029     2.029   0.0% |
Set symmetry:                        0.000     0.000   0.0% |
TCI: Evaluate splines:               0.578     0.578   0.0% |
mktci:                               0.026     0.026   0.0% |
Other:                               4.278     4.278   0.1% |
-----------------------------------------------------------
Total:                                      5359.897 100.0%

Memory usage: 4.49 GiB
Date: Sat Feb 21 23:08:48 2026
