
  ___ ___ ___ _ _ _  
 |   |   |_  | | | | 
 | | | | | . | | | | 
 |__ |  _|___|_____|  25.7.0
 |___|_|             

User:   mikei@Z790-AORUS-ELITE-AX
Date:   Fri Feb 20 11:33:05 2026
Arch:   x86_64
Pid:    89048
CWD:    /home/mikei/Dokumenty/code/cemea/ocx
Python: 3.10.16
gpaw:   /home/mikei/.pyenv/versions/cemea-env/lib/python3.10/site-packages/gpaw
_gpaw:  /home/mikei/.pyenv/versions/cemea-env/lib/python3.10/site-packages/
        _gpaw.cpython-310-x86_64-linux-gnu.so
ase:    /home/mikei/.pyenv/versions/cemea-env/lib/python3.10/site-packages/ase (version 3.27.0)
numpy:  /home/mikei/.pyenv/versions/cemea-env/lib/python3.10/site-packages/numpy (version 2.2.6)
scipy:  /home/mikei/.pyenv/versions/cemea-env/lib/python3.10/site-packages/scipy (version 1.15.3)
libxc:  2.x.y
units:  Angstrom and eV
cores: 1
OpenMP: False
OMP_NUM_THREADS: 1

Input parameters:
  basis: dzp
  convergence: {density: 0.0001,
                eigenstates: 1e-05,
                energy: 1e-05}
  kpts: [4 4 1]
  mode: lcao

System changes: positions, numbers, cell, pbc, initial_charges, initial_magmoms 

Initialize ...

species:
  Mo:
    name: Molybdenum
    id: ac24daaf086600a00ce6d19a74574df1
    Z: 42.0
    valence: 14
    core: 28
    charge: 0.0
    file: /home/mikei/.pyenv/versions/cemea-env/lib/python3.10/site-packages/gpaw_data/setups/Mo.LDA.gz
    compensation charges: {type: gauss,
                           rc: 0.38,
                           lmax: 2}
    cutoffs: {filter: 2.16,
              core: 1.42}
    projectors:
      #              energy  rcut
      - 4s(2.00)   -64.384   1.238
      - 5s(1.00)    -4.319   1.238
      - 4p(6.00)   -38.595   1.296
      - 5p(0.00)    -1.161   1.296
      - 4d(5.00)    -3.933   1.296
      -  d          23.278   1.296
  
    # LCAO basis set for Mo:
    #   Name: dzp
    #   File: /home/mikei/.pyenv/versions/cemea-env/lib/python3.10/site-packages/gpaw_data/setups/Mo.dzp.basis.gz
    #   Number of radial functions: 11
    #   Number of spherical harmonics: 29
    #     l=0, rc=3.5469 Bohr: 4s-sz confined orbital
    #     l=0, rc=10.0469 Bohr: 5s-sz confined orbital
    #     l=1, rc=4.0781 Bohr: 4p-sz confined orbital
    #     l=1, rc=14.0938 Bohr: 5p-sz confined orbital
    #     l=2, rc=7.2031 Bohr: 4d-sz confined orbital
    #     l=0, rc=2.1250 Bohr: 4s-dz split-valence wave
    #     l=0, rc=6.1250 Bohr: 5s-dz split-valence wave
    #     l=1, rc=2.5469 Bohr: 4p-dz split-valence wave
    #     l=1, rc=8.7656 Bohr: 5p-dz split-valence wave
    #     l=2, rc=4.2344 Bohr: 4d-dz split-valence wave
    #     l=1, rc=10.0469 Bohr: p-type Gaussian polarization
    #   Number of RI-basis functions 0

  C:
    name: Carbon
    id: d60576a1f549371a163e72552ca58787
    Z: 6.0
    valence: 4
    core: 2
    charge: 0.0
    file: /home/mikei/.pyenv/versions/cemea-env/lib/python3.10/site-packages/gpaw_data/setups/C.LDA.gz
    compensation charges: {type: gauss,
                           rc: 0.20,
                           lmax: 2}
    cutoffs: {filter: 1.14,
              core: 1.14}
    projectors:
      #              energy  rcut
      - 2s(2.00)   -13.639   0.635
      - 2p(2.00)    -5.414   0.635
      -  s          13.573   0.635
      -  p          21.797   0.635
      -  d           0.000   0.635
  
    # LCAO basis set for C:
    #   Name: dzp
    #   File: /home/mikei/.pyenv/versions/cemea-env/lib/python3.10/site-packages/gpaw_data/setups/C.dzp.basis.gz
    #   Number of radial functions: 5
    #   Number of spherical harmonics: 13
    #     l=0, rc=5.5469 Bohr: 2s-sz confined orbital
    #     l=1, rc=6.6719 Bohr: 2p-sz confined orbital
    #     l=0, rc=3.0312 Bohr: 2s-dz split-valence wave
    #     l=1, rc=3.7500 Bohr: 2p-dz split-valence wave
    #     l=2, rc=6.6719 Bohr: d-type Gaussian polarization
    #   Number of RI-basis functions 0

  H:
    name: Hydrogen
    id: 4766778ce56282eaa64abeb28b7c1de3
    Z: 1.0
    valence: 1
    core: 0
    charge: 0.0
    file: /home/mikei/.pyenv/versions/cemea-env/lib/python3.10/site-packages/gpaw_data/setups/H.LDA.gz
    compensation charges: {type: gauss,
                           rc: 0.15,
                           lmax: 2}
    cutoffs: {filter: 0.85,
              core: 0.53}
    projectors:
      #              energy  rcut
      - 1s(1.00)    -6.353   0.476
      -  s          20.858   0.476
      -  p           0.000   0.476
  
    # LCAO basis set for H:
    #   Name: dzp
    #   File: /home/mikei/.pyenv/versions/cemea-env/lib/python3.10/site-packages/gpaw_data/setups/H.dzp.basis.gz
    #   Number of radial functions: 3
    #   Number of spherical harmonics: 5
    #     l=0, rc=6.4219 Bohr: 1s-sz confined orbital
    #     l=0, rc=3.6094 Bohr: 1s-dz split-valence wave
    #     l=1, rc=6.4219 Bohr: p-type Gaussian polarization
    #   Number of RI-basis functions 0

Reference energy: -884245.843410  # eV

Spin-paired calculation

Convergence criteria:
 Maximum [total energy] change in last 3 cyles: 1e-05 eV / valence electron
 Maximum integral of absolute [dens]ity change: 0.0001 electrons / valence electron
 Maximum integral of absolute [eigenst]ate change: 1e-05 eV^2 / valence electron
 Maximum number of scf [iter]ations: 333
 (Square brackets indicate name in SCF output, whereas a 'c' in
 the SCF output indicates the quantity has converged.)

Symmetries present (total): 2

  ( 1  0  0)  ( 0  1  0)
  ( 0  1  0)  ( 1  0  0)
  ( 0  0  1)  ( 0  0  1)

16 k-points: 4 x 4 x 1 Monkhorst-Pack grid
6 k-points in the irreducible part of the Brillouin zone
       k-points in crystal coordinates                weights
   0:     0.12500000   -0.12500000    0.00000000          2/16
   1:     0.12500000    0.12500000    0.00000000          2/16
   2:     0.37500000   -0.37500000    0.00000000          2/16
   3:     0.37500000   -0.12500000    0.00000000          4/16
   4:     0.37500000    0.12500000    0.00000000          4/16
   5:     0.37500000    0.37500000    0.00000000          2/16

Wave functions: LCAO
  Diagonalizer: Serial LAPACK
  Atomic Correction: dense with blas
  Data-type: complex
 

Occupation numbers: Fermi-Dirac:
  width: 0.1000  # eV
 

Eigensolver
   LCAO using direct dense diagonalizer 

Densities:
  Coarse grid: 40*40*92 grid
  Fine grid: 80*80*184 grid
  Total Charge: 0.000000 

Density mixing:
  Method: separate
  Backend: pulay
  Linear mixing parameter: 0.05
  old densities: 5
  Damping of long wavelength oscillations: 50 

Hamiltonian:
  XC and Coulomb potentials evaluated on a 80*80*184 grid
  Using the LDA Exchange-Correlation functional
  Interpolation: tri-quintic (5. degree polynomial)
  Poisson solver: FastPoissonSolver using
    Stencil: 6*3+1=19 point O(h^6) finite-difference Laplacian
    FFT axes: [np.int64(0), np.int64(1), np.int64(2)]
    FST axes: []
 

Memory estimate:
  Process memory now: 2222.55 MiB
  Calculator: 206.46 MiB
    Density: 81.57 MiB
      Arrays: 29.20 MiB
      Localized functions: 41.14 MiB
      Mixer: 11.23 MiB
    Hamiltonian: 21.76 MiB
      Arrays: 19.09 MiB
      XC: 0.00 MiB
      Poisson: 0.00 MiB
      vbar: 2.67 MiB
    Wavefunctions: 103.14 MiB
      C [qnM]: 2.17 MiB
      S, T [2 x qmm]: 15.29 MiB
      P [aqMi]: 0.33 MiB
      BasisFunctions: 85.34 MiB
      Eigensolver: 0.00 MiB

Total number of cores used: 1

Number of atoms: 13
Number of atomic orbitals: 289
Number of bands in calculation: 82
Number of valence electrons: 129
Bands to converge: occupied

... initialized

Initializing position-dependent things.

Density initialized from atomic densities
      .-------------------.  
     /|                   |  
    / |                   |  
   /  |                   |  
  /   |                   |  
 *    |                   |  
 |    |                   |  
 |    |                   |  
 |    |                   |  
 |    |                   |  
 |    |                   |  
 |    |   MH        Mo    |  
 |    |                   |  
 |    |Mo        Mo       |  
 |    |   C         C     |  
 |  Mo|       Mo          |  
 |    |C         C        |  
 Mo   |    Mo             |  
 |    |                   |  
 |    |                   |  
 |    |                   |  
 |    |                   |  
 |    .-------------------.  
 |   /                   /   
 |  /                   /    
 | /                   /     
 |/                   /      
 *-------------------*       

Atomic positions and initial magnetic moments

Positions:
   0 Mo     0.000000    0.000000    8.000000    ( 0.0000,  0.0000,  0.0000)
   1 Mo     2.060000    2.060000   10.060000    ( 0.0000,  0.0000,  0.0000)
   2 C      2.060000    2.060000    8.000000    ( 0.0000,  0.0000,  0.0000)
   3 Mo     0.000000    4.120000    8.000000    ( 0.0000,  0.0000,  0.0000)
   4 Mo     2.060000    6.180000   10.060000    ( 0.0000,  0.0000,  0.0000)
   5 C      2.060000    6.180000    8.000000    ( 0.0000,  0.0000,  0.0000)
   6 Mo     4.120000    0.000000    8.000000    ( 0.0000,  0.0000,  0.0000)
   7 Mo     6.180000    2.060000   10.060000    ( 0.0000,  0.0000,  0.0000)
   8 C      6.180000    2.060000    8.000000    ( 0.0000,  0.0000,  0.0000)
   9 Mo     4.120000    4.120000    8.000000    ( 0.0000,  0.0000,  0.0000)
  10 Mo     6.180000    6.180000   10.060000    ( 0.0000,  0.0000,  0.0000)
  11 C      6.180000    6.180000    8.000000    ( 0.0000,  0.0000,  0.0000)
  12 H      3.433333    3.433333   11.560000    ( 0.0000,  0.0000,  0.0000)

Unit cell:
           periodic     x           y           z      points  spacing
  1. axis:    yes    8.240000    0.000000    0.000000    40     0.2060
  2. axis:    yes    0.000000    8.240000    0.000000    40     0.2060
  3. axis:    yes    0.000000    0.000000   18.060000    92     0.1963

  Lengths:   8.240000   8.240000  18.060000
  Angles:   90.000000  90.000000  90.000000

Effective grid spacing dv^(1/3) = 0.2027

     iter     time        total  log10-change:
                         energy   eigst   dens
iter:   1 11:33:11  -100.049478        c
iter:   2 11:33:18   -93.211964        c -0.85
iter:   3 11:33:27   -87.344213        c -0.95
iter:   4 11:33:39   -84.338000        c -1.06
iter:   5 11:33:51   -83.203125        c -1.21
iter:   6 11:33:58   -82.304966        c -1.33
iter:   7 11:34:05   -82.095284        c -1.54
iter:   8 11:34:17   -82.041611        c -1.76
iter:   9 11:34:24   -81.999993        c -1.82
iter:  10 11:34:35   -81.897242        c -1.85
iter:  11 11:34:44   -81.881729        c -2.02
iter:  12 11:34:53   -81.873108        c -2.15
iter:  13 11:35:02   -81.869040        c -2.18
iter:  14 11:35:11   -81.860260        c -2.24
iter:  15 11:35:21   -81.856272        c -2.33
iter:  16 11:35:28   -81.854745        c -2.38
iter:  17 11:35:39   -81.852384        c -2.48
iter:  18 11:35:52   -81.851467        c -2.64
iter:  19 11:36:01   -81.852840        c -2.71
iter:  20 11:36:08   -81.852539        c -2.86
iter:  21 11:36:17   -81.852272c       c -2.99
iter:  22 11:36:30   -81.852394c       c -3.01
iter:  23 11:36:42   -81.852380c       c -3.10
iter:  24 11:36:49   -81.852080c       c -3.18
iter:  25 11:37:01   -81.852225c       c -3.28
iter:  26 11:37:10   -81.852069c       c -3.30
iter:  27 11:37:20   -81.851786c       c -3.40
iter:  28 11:37:27   -81.851874c       c -3.46
iter:  29 11:37:39   -81.851752c       c -3.48
iter:  30 11:37:48   -81.851568c       c -3.57
iter:  31 11:37:57   -81.851647c       c -3.62
iter:  32 11:38:09   -81.851482c       c -3.59
iter:  33 11:38:17   -81.851357c       c -3.70
iter:  34 11:38:28   -81.851392c       c -3.75
iter:  35 11:38:36   -81.851309c       c -3.74
iter:  36 11:38:43   -81.851200c       c -3.82
iter:  37 11:38:52   -81.851276c       c -3.90
iter:  38 11:38:59   -81.851203c       c -3.89
iter:  39 11:39:06   -81.851182c       c -4.00
iter:  40 11:39:13   -81.851234c       c -4.02c

Converged after 40 iterations.

Dipole moment: (-5.461576, -5.461576, 0.301760) |e|*Ang

Energy contributions relative to reference atoms: (reference = -884245.843410)

Kinetic:       -215.664667
Potential:     +146.581577
External:        +0.000000
XC:             -13.229656
Entropy (-ST):   -1.050539
Local:           +0.986782
SIC:             +0.000000
--------------------------
Free energy:    -82.376504
Extrapolated:   -81.851234

Showing only first 2 kpts
 Kpt  Band  Eigenvalues  Occupancy
  0    62     -2.33629    1.53873
  0    63     -2.22878    1.06473
  0    64     -2.20175    0.92979
  0    65     -2.07647    0.39771

  1    62     -2.33793    1.54452
  1    63     -2.23415    1.09144
  1    64     -2.18668    0.85534
  1    65     -2.08339    0.42022


Fermi level: -2.21581

No gap
No difference between direct/indirect transitions
Timing:                              incl.     excl.
-----------------------------------------------------------
Basic WFS set positions:             0.000     0.000   0.0% |
Basis functions set positions:       0.066     0.066   0.0% |
LCAO WFS Initialize:                 0.207     0.031   0.0% |
 Hamiltonian:                        0.176     0.000   0.0% |
  Atomic:                            0.056     0.001   0.0% |
   XC Correction:                    0.055     0.055   0.0% |
  Calculate atomic Hamiltonians:     0.005     0.005   0.0% |
  Communicate:                       0.000     0.000   0.0% |
  Hartree integrate/restrict:        0.005     0.005   0.0% |
  Initialize Hamiltonian:            0.001     0.001   0.0% |
  Poisson:                           0.068     0.005   0.0% |
   Communicate from 1D:              0.006     0.006   0.0% |
   Communicate from 2D:              0.007     0.007   0.0% |
   Communicate to 1D:                0.007     0.007   0.0% |
   Communicate to 2D:                0.008     0.008   0.0% |
   FFT 1D:                           0.014     0.014   0.0% |
   FFT 2D:                           0.021     0.021   0.0% |
  XC 3D grid:                        0.040     0.040   0.0% |
  vbar:                              0.001     0.001   0.0% |
P tci:                               0.201     0.201   0.1% |
SCF-cycle:                         366.881     0.047   0.0% |
 Density:                          190.472     0.000   0.0% |
  Atomic density matrices:           0.045     0.045   0.0% |
  Mix:                               3.617     3.617   1.0% |
  Multipole moments:                 0.004     0.004   0.0% |
  Normalize:                         0.002     0.002   0.0% |
  Pseudo density:                  186.804     0.013   0.0% |
   Calculate density matrix:         0.650     0.650   0.2% |
   Construct density:              186.010   186.010  50.5% |-------------------|
   Symmetrize density:               0.131     0.131   0.0% |
 Hamiltonian:                        8.425     0.002   0.0% |
  Atomic:                            2.419     0.029   0.0% |
   XC Correction:                    2.390     2.390   0.6% |
  Calculate atomic Hamiltonians:     0.214     0.214   0.1% |
  Communicate:                       0.000     0.000   0.0% |
  Hartree integrate/restrict:        0.203     0.203   0.1% |
  Poisson:                           2.431     0.195   0.1% |
   Communicate from 1D:              0.242     0.242   0.1% |
   Communicate from 2D:              0.259     0.259   0.1% |
   Communicate to 1D:                0.241     0.241   0.1% |
   Communicate to 2D:                0.243     0.243   0.1% |
   FFT 1D:                           0.426     0.426   0.1% |
   FFT 2D:                           0.826     0.826   0.2% |
  XC 3D grid:                        2.834     2.834   0.8% |
  vbar:                              0.321     0.321   0.1% |
 LCAO eigensolver:                 167.937     0.042   0.0% |
  Calculate projections:            12.796    12.796   3.5% ||
  DenseAtomicCorrection:            10.013    10.013   2.7% ||
  Distribute overlap matrix:         0.035     0.035   0.0% |
  Orbital Layouts:                 111.598   111.598  30.3% |-----------|
  Potential matrix:                 31.655    31.655   8.6% |--|
  Sum over cells:                    1.798     1.798   0.5% |
ST tci:                              0.131     0.131   0.0% |
Set symmetry:                        0.000     0.000   0.0% |
TCI: Evaluate splines:               0.164     0.164   0.0% |
mktci:                               0.004     0.004   0.0% |
Other:                               0.543     0.543   0.1% |
-----------------------------------------------------------
Total:                                       368.198 100.0%

Memory usage: 2.17 GiB
Date: Fri Feb 20 11:39:13 2026
