
  ___ ___ ___ _ _ _  
 |   |   |_  | | | | 
 | | | | | . | | | | 
 |__ |  _|___|_____|  25.7.0
 |___|_|             

User:   ubuntu@third-test
Date:   Wed Feb 18 20:21:58 2026
Arch:   x86_64
Pid:    2718679
CWD:    /mnt/vdd1/work/cemea/fairchem/src/fairchem/applications/ocx/mo_h_adsorption_workflow
Python: 3.10.16
gpaw:   /home/ubuntu/.pyenv/versions/cemea-env/lib/python3.10/site-packages/gpaw
_gpaw:  /home/ubuntu/.pyenv/versions/cemea-env/lib/python3.10/site-packages/
        _gpaw.cpython-310-x86_64-linux-gnu.so
ase:    /home/ubuntu/.pyenv/versions/cemea-env/lib/python3.10/site-packages/ase (version 3.27.0)
numpy:  /home/ubuntu/.pyenv/versions/cemea-env/lib/python3.10/site-packages/numpy (version 2.2.6)
scipy:  /home/ubuntu/.pyenv/versions/cemea-env/lib/python3.10/site-packages/scipy (version 1.15.3)
libxc:  2.x.y
units:  Angstrom and eV
cores: 1
OpenMP: False
OMP_NUM_THREADS: 1

Input parameters:
  basis: dzp
  convergence: {density: 0.0001,
                eigenstates: 1e-05,
                energy: 1e-05}
  kpts: [4 4 1]
  mode: lcao

System changes: positions, numbers, cell, pbc, initial_charges, initial_magmoms 

Initialize ...

species:
  Mo:
    name: Molybdenum
    id: ac24daaf086600a00ce6d19a74574df1
    Z: 42.0
    valence: 14
    core: 28
    charge: 0.0
    file: /home/ubuntu/.pyenv/versions/cemea-env/lib/python3.10/site-packages/gpaw_data/setups/Mo.LDA.gz
    compensation charges: {type: gauss,
                           rc: 0.38,
                           lmax: 2}
    cutoffs: {filter: 2.16,
              core: 1.42}
    projectors:
      #              energy  rcut
      - 4s(2.00)   -64.384   1.238
      - 5s(1.00)    -4.319   1.238
      - 4p(6.00)   -38.595   1.296
      - 5p(0.00)    -1.161   1.296
      - 4d(5.00)    -3.933   1.296
      -  d          23.278   1.296
  
    # LCAO basis set for Mo:
    #   Name: dzp
    #   File: /home/ubuntu/.pyenv/versions/cemea-env/lib/python3.10/site-packages/gpaw_data/setups/Mo.dzp.basis.gz
    #   Number of radial functions: 11
    #   Number of spherical harmonics: 29
    #     l=0, rc=3.5469 Bohr: 4s-sz confined orbital
    #     l=0, rc=10.0469 Bohr: 5s-sz confined orbital
    #     l=1, rc=4.0781 Bohr: 4p-sz confined orbital
    #     l=1, rc=14.0938 Bohr: 5p-sz confined orbital
    #     l=2, rc=7.2031 Bohr: 4d-sz confined orbital
    #     l=0, rc=2.1250 Bohr: 4s-dz split-valence wave
    #     l=0, rc=6.1250 Bohr: 5s-dz split-valence wave
    #     l=1, rc=2.5469 Bohr: 4p-dz split-valence wave
    #     l=1, rc=8.7656 Bohr: 5p-dz split-valence wave
    #     l=2, rc=4.2344 Bohr: 4d-dz split-valence wave
    #     l=1, rc=10.0469 Bohr: p-type Gaussian polarization
    #   Number of RI-basis functions 0

  S:
    name: Sulfur
    id: a5eb49d7597a2879c13719b04c71318f
    Z: 16.0
    valence: 6
    core: 10
    charge: 0.0
    file: /home/ubuntu/.pyenv/versions/cemea-env/lib/python3.10/site-packages/gpaw_data/setups/S.LDA.gz
    compensation charges: {type: gauss,
                           rc: 0.24,
                           lmax: 2}
    cutoffs: {filter: 1.77,
              core: 1.66}
    projectors:
      #              energy  rcut
      - 3s(2.00)   -17.278   0.974
      - 3p(4.00)    -7.106   0.979
      -  s           9.933   0.974
      -  p          20.105   0.979
      -  d           0.000   0.900
  
    # LCAO basis set for S:
    #   Name: dzp
    #   File: /home/ubuntu/.pyenv/versions/cemea-env/lib/python3.10/site-packages/gpaw_data/setups/S.dzp.basis.gz
    #   Number of radial functions: 5
    #   Number of spherical harmonics: 13
    #     l=0, rc=5.5156 Bohr: 3s-sz confined orbital
    #     l=1, rc=6.9375 Bohr: 3p-sz confined orbital
    #     l=0, rc=3.0469 Bohr: 3s-dz split-valence wave
    #     l=1, rc=3.9375 Bohr: 3p-dz split-valence wave
    #     l=2, rc=6.9375 Bohr: d-type Gaussian polarization
    #   Number of RI-basis functions 0

  H:
    name: Hydrogen
    id: 4766778ce56282eaa64abeb28b7c1de3
    Z: 1.0
    valence: 1
    core: 0
    charge: 0.0
    file: /home/ubuntu/.pyenv/versions/cemea-env/lib/python3.10/site-packages/gpaw_data/setups/H.LDA.gz
    compensation charges: {type: gauss,
                           rc: 0.15,
                           lmax: 2}
    cutoffs: {filter: 0.85,
              core: 0.53}
    projectors:
      #              energy  rcut
      - 1s(1.00)    -6.353   0.476
      -  s          20.858   0.476
      -  p           0.000   0.476
  
    # LCAO basis set for H:
    #   Name: dzp
    #   File: /home/ubuntu/.pyenv/versions/cemea-env/lib/python3.10/site-packages/gpaw_data/setups/H.dzp.basis.gz
    #   Number of radial functions: 3
    #   Number of spherical harmonics: 5
    #     l=0, rc=6.4219 Bohr: 1s-sz confined orbital
    #     l=0, rc=3.6094 Bohr: 1s-dz split-valence wave
    #     l=1, rc=6.4219 Bohr: p-type Gaussian polarization
    #   Number of RI-basis functions 0

Reference energy: -2106715.823749  # eV

Spin-paired calculation

Convergence criteria:
 Maximum [total energy] change in last 3 cyles: 1e-05 eV / valence electron
 Maximum integral of absolute [dens]ity change: 0.0001 electrons / valence electron
 Maximum integral of absolute [eigenst]ate change: 1e-05 eV^2 / valence electron
 Maximum number of scf [iter]ations: 333
 (Square brackets indicate name in SCF output, whereas a 'c' in
 the SCF output indicates the quantity has converged.)

Symmetries present (total): 1

  ( 1  0  0)
  ( 0  1  0)
  ( 0  0  1)

16 k-points: 4 x 4 x 1 Monkhorst-Pack grid
8 k-points in the irreducible part of the Brillouin zone
       k-points in crystal coordinates                weights
   0:     0.12500000   -0.37500000    0.00000000          2/16
   1:     0.12500000   -0.12500000    0.00000000          2/16
   2:     0.12500000    0.12500000    0.00000000          2/16
   3:     0.12500000    0.37500000    0.00000000          2/16
   4:     0.37500000   -0.37500000    0.00000000          2/16
   5:     0.37500000   -0.12500000    0.00000000          2/16
   6:     0.37500000    0.12500000    0.00000000          2/16
   7:     0.37500000    0.37500000    0.00000000          2/16

Wave functions: LCAO
  Diagonalizer: Serial LAPACK
  Atomic Correction: dense with blas
  Data-type: complex
 

Occupation numbers: Fermi-Dirac:
  width: 0.1000  # eV
 

Eigensolver
   LCAO using direct dense diagonalizer 

Densities:
  Coarse grid: 56*56*116 grid
  Fine grid: 112*112*232 grid
  Total Charge: 0.000000 

Density mixing:
  Method: separate
  Backend: pulay
  Linear mixing parameter: 0.05
  old densities: 5
  Damping of long wavelength oscillations: 50 

Hamiltonian:
  XC and Coulomb potentials evaluated on a 112*112*232 grid
  Using the LDA Exchange-Correlation functional
  Interpolation: tri-quintic (5. degree polynomial)
  Poisson solver: FastPoissonSolver using
    Stencil: 8*3+1=25 point O(h^6) finite-difference Laplacian
    FFT axes: [np.int64(0), np.int64(1), np.int64(2)]
    FST axes: []
 

Memory estimate:
  Process memory now: 1658.73 MiB
  Calculator: 721.74 MiB
    Density: 237.68 MiB
      Arrays: 72.16 MiB
      Localized functions: 137.77 MiB
      Mixer: 27.75 MiB
    Hamiltonian: 57.13 MiB
      Arrays: 47.18 MiB
      XC: 0.00 MiB
      Poisson: 0.00 MiB
      vbar: 9.95 MiB
    Wavefunctions: 426.93 MiB
      C [qnM]: 27.55 MiB
      S, T [2 x qmm]: 191.22 MiB
      P [aqMi]: 4.79 MiB
      BasisFunctions: 203.38 MiB
      Eigensolver: 0.00 MiB

Total number of cores used: 1

Number of atoms: 49
Number of atomic orbitals: 885
Number of bands in calculation: 255
Number of valence electrons: 417
Bands to converge: occupied

... initialized

Initializing position-dependent things.

Density initialized from atomic densities
                                                              
                                                              
                                                              
                                                              
                                                              
              S      S       S       S                        
                                                              
                S       S    H S       S                      
            Mo      Mo      Mo      Mo                        
                  S       S       S      S                    
               MoS    Mo S    Mo S    MoS                     
                   SS      SS      SS      SS                 
                 Mo      Mo     Mo      Mo                    
                     S       S       S       S                
                   Mo      Mo      Mo     Mo                  
                       S       S       S       S              
                                                              
                                                              
                                                              
                                                              

Atomic positions and initial magnetic moments

Positions:
   0 Mo     0.000000    0.000000   11.475400    ( 0.0000,  0.0000,  0.0000)
   1 S     -0.000000    1.824427   12.950800    ( 0.0000,  0.0000,  0.0000)
   2 S      1.580000    0.912213   10.000000    ( 0.0000,  0.0000,  0.0000)
   3 Mo    -1.580000    2.736640   11.475400    ( 0.0000,  0.0000,  0.0000)
   4 S     -1.580000    4.561067   12.950800    ( 0.0000,  0.0000,  0.0000)
   5 S     -0.000000    3.648854   10.000000    ( 0.0000,  0.0000,  0.0000)
   6 Mo    -3.160000    5.473281   11.475400    ( 0.0000,  0.0000,  0.0000)
   7 S     -3.160000    7.297707   12.950800    ( 0.0000,  0.0000,  0.0000)
   8 S     -1.580000    6.385494   10.000000    ( 0.0000,  0.0000,  0.0000)
   9 Mo    -4.740000    8.209921   11.475400    ( 0.0000,  0.0000,  0.0000)
  10 S     -4.740000   10.034348   12.950800    ( 0.0000,  0.0000,  0.0000)
  11 S     -3.160000    9.122134   10.000000    ( 0.0000,  0.0000,  0.0000)
  12 Mo     3.160000    0.000000   11.475400    ( 0.0000,  0.0000,  0.0000)
  13 S      3.160000    1.824427   12.950800    ( 0.0000,  0.0000,  0.0000)
  14 S      4.740000    0.912213   10.000000    ( 0.0000,  0.0000,  0.0000)
  15 Mo     1.580000    2.736640   11.475400    ( 0.0000,  0.0000,  0.0000)
  16 S      1.580000    4.561067   12.950800    ( 0.0000,  0.0000,  0.0000)
  17 S      3.160000    3.648854   10.000000    ( 0.0000,  0.0000,  0.0000)
  18 Mo     0.000000    5.473281   11.475400    ( 0.0000,  0.0000,  0.0000)
  19 S     -0.000000    7.297707   12.950800    ( 0.0000,  0.0000,  0.0000)
  20 S      1.580000    6.385494   10.000000    ( 0.0000,  0.0000,  0.0000)
  21 Mo    -1.580000    8.209921   11.475400    ( 0.0000,  0.0000,  0.0000)
  22 S     -1.580000   10.034348   12.950800    ( 0.0000,  0.0000,  0.0000)
  23 S     -0.000000    9.122134   10.000000    ( 0.0000,  0.0000,  0.0000)
  24 Mo     6.320000    0.000000   11.475400    ( 0.0000,  0.0000,  0.0000)
  25 S      6.320000    1.824427   12.950800    ( 0.0000,  0.0000,  0.0000)
  26 S      7.900000    0.912213   10.000000    ( 0.0000,  0.0000,  0.0000)
  27 Mo     4.740000    2.736640   11.475400    ( 0.0000,  0.0000,  0.0000)
  28 S      4.740000    4.561067   12.950800    ( 0.0000,  0.0000,  0.0000)
  29 S      6.320000    3.648854   10.000000    ( 0.0000,  0.0000,  0.0000)
  30 Mo     3.160000    5.473281   11.475400    ( 0.0000,  0.0000,  0.0000)
  31 S      3.160000    7.297707   12.950800    ( 0.0000,  0.0000,  0.0000)
  32 S      4.740000    6.385494   10.000000    ( 0.0000,  0.0000,  0.0000)
  33 Mo     1.580000    8.209921   11.475400    ( 0.0000,  0.0000,  0.0000)
  34 S      1.580000   10.034348   12.950800    ( 0.0000,  0.0000,  0.0000)
  35 S      3.160000    9.122134   10.000000    ( 0.0000,  0.0000,  0.0000)
  36 Mo     9.480000    0.000000   11.475400    ( 0.0000,  0.0000,  0.0000)
  37 S      9.480000    1.824427   12.950800    ( 0.0000,  0.0000,  0.0000)
  38 S     11.060000    0.912213   10.000000    ( 0.0000,  0.0000,  0.0000)
  39 Mo     7.900000    2.736640   11.475400    ( 0.0000,  0.0000,  0.0000)
  40 S      7.900000    4.561067   12.950800    ( 0.0000,  0.0000,  0.0000)
  41 S      9.480000    3.648854   10.000000    ( 0.0000,  0.0000,  0.0000)
  42 Mo     6.320000    5.473281   11.475400    ( 0.0000,  0.0000,  0.0000)
  43 S      6.320000    7.297707   12.950800    ( 0.0000,  0.0000,  0.0000)
  44 S      7.900000    6.385494   10.000000    ( 0.0000,  0.0000,  0.0000)
  45 Mo     4.740000    8.209921   11.475400    ( 0.0000,  0.0000,  0.0000)
  46 S      4.740000   10.034348   12.950800    ( 0.0000,  0.0000,  0.0000)
  47 S      6.320000    9.122134   10.000000    ( 0.0000,  0.0000,  0.0000)
  48 H      2.896667    5.017174   14.450800    ( 0.0000,  0.0000,  0.0000)

Unit cell:
           periodic     x           y           z      points  spacing
  1. axis:    yes   12.640000    0.000000    0.000000    56     0.1955
  2. axis:    yes   -6.320000   10.946561    0.000000    56     0.1955
  3. axis:    yes    0.000000    0.000000   22.950800   116     0.1979

  Lengths:  12.640000  12.640000  22.950800
  Angles:   90.000000  90.000000 120.000000

Effective grid spacing dv^(1/3) = 0.2059

     iter     time        total  log10-change:
                         energy   eigst   dens
iter:   1 20:31:53  -376.727308        c
iter:   2 20:42:22  -371.248883        c -1.22
iter:   3 20:52:20  -363.785615        c -1.27
iter:   4 21:02:14  -361.497159        c -1.35
iter:   5 21:12:29  -361.952175        c -1.50
iter:   6 21:22:32  -359.951722        c -1.65
iter:   7 21:32:29  -359.834489        c -1.90
iter:   8 21:42:47  -359.574432        c -2.06
iter:   9 21:53:08  -359.518524        c -2.34
iter:  10 22:03:42  -359.509895        c -2.56
iter:  11 22:14:02  -359.506127        c -2.81
iter:  12 22:24:38  -359.500391        c -2.86
iter:  13 22:35:16  -359.499252        c -2.99
iter:  14 22:45:13  -359.497592c       c -3.06
iter:  15 22:55:01  -359.497153c       c -3.24
iter:  16 23:04:59  -359.496780c       c -3.32
iter:  17 23:14:46  -359.496660c       c -3.49
iter:  18 23:24:36  -359.496716c       c -3.79
iter:  19 23:34:19  -359.496823c       c -3.95
iter:  20 23:44:52  -359.496857c       c -4.05c

Converged after 20 iterations.

Dipole moment: (-5.115214, -8.904613, 0.001911) |e|*Ang

Energy contributions relative to reference atoms: (reference = -2106715.823749)

Kinetic:       +417.580042
Potential:     -442.007355
External:        +0.000000
XC:            -335.433050
Entropy (-ST):   -0.638383
Local:           +0.682697
SIC:             +0.000000
--------------------------
Free energy:   -359.816049
Extrapolated:  -359.496857

Showing only first 2 kpts
 Kpt  Band  Eigenvalues  Occupancy
  0   206     -1.92360    1.86744
  0   207     -1.79241    1.58279
  0   208     -1.56786    0.57312
  0   209     -1.51430    0.38070

  1   206     -1.85065    1.74332
  1   207     -1.84399    1.72804
  1   208     -1.68490    1.12840
  1   209     -1.66165    1.01286


Fermi level: -1.65908

No gap
No difference between direct/indirect transitions
Timing:                              incl.     excl.
-----------------------------------------------------------
Basic WFS set positions:             0.001     0.001   0.0% |
Basis functions set positions:       0.226     0.226   0.0% |
LCAO WFS Initialize:                 1.060     0.161   0.0% |
 Hamiltonian:                        0.899     0.000   0.0% |
  Atomic:                            0.283     0.003   0.0% |
   XC Correction:                    0.280     0.280   0.0% |
  Calculate atomic Hamiltonians:     0.027     0.027   0.0% |
  Communicate:                       0.000     0.000   0.0% |
  Hartree integrate/restrict:        0.048     0.048   0.0% |
  Initialize Hamiltonian:            0.000     0.000   0.0% |
  Poisson:                           0.372     0.013   0.0% |
   Communicate from 1D:              0.055     0.055   0.0% |
   Communicate from 2D:              0.056     0.056   0.0% |
   Communicate to 1D:                0.046     0.046   0.0% |
   Communicate to 2D:                0.056     0.056   0.0% |
   FFT 1D:                           0.055     0.055   0.0% |
   FFT 2D:                           0.092     0.092   0.0% |
  XC 3D grid:                        0.145     0.145   0.0% |
  vbar:                              0.024     0.024   0.0% |
P tci:                               5.716     5.716   0.0% |
SCF-cycle:                       12147.131     0.059   0.0% |
 Density:                          969.332     0.001   0.0% |
  Atomic density matrices:           0.631     0.631   0.0% |
  Mix:                               7.346     7.346   0.1% |
  Multipole moments:                 0.013     0.013   0.0% |
  Normalize:                         0.008     0.008   0.0% |
  Pseudo density:                  961.334     0.024   0.0% |
   Calculate density matrix:         7.260     7.260   0.1% |
   Construct density:              954.049   954.049   7.8% |--|
   Symmetrize density:               0.001     0.001   0.0% |
 Hamiltonian:                       18.290     0.002   0.0% |
  Atomic:                            5.367     0.056   0.0% |
   XC Correction:                    5.311     5.311   0.0% |
  Calculate atomic Hamiltonians:     0.602     0.602   0.0% |
  Communicate:                       0.000     0.000   0.0% |
  Hartree integrate/restrict:        1.255     1.255   0.0% |
  Poisson:                           7.681     0.288   0.0% |
   Communicate from 1D:              1.164     1.164   0.0% |
   Communicate from 2D:              1.163     1.163   0.0% |
   Communicate to 1D:                0.895     0.895   0.0% |
   Communicate to 2D:                1.176     1.176   0.0% |
   FFT 1D:                           1.106     1.106   0.0% |
   FFT 2D:                           1.889     1.889   0.0% |
  XC 3D grid:                        2.968     2.968   0.0% |
  vbar:                              0.416     0.416   0.0% |
 LCAO eigensolver:               11159.450     0.301   0.0% |
  Calculate projections:            18.269    18.269   0.2% |
  DenseAtomicCorrection:           244.012   244.012   2.0% ||
  Distribute overlap matrix:         0.309     0.309   0.0% |
  Orbital Layouts:               10705.930 10705.930  87.9% |----------------------------------|
  Potential matrix:                182.060   182.060   1.5% ||
  Sum over cells:                    8.568     8.568   0.1% |
ST tci:                              1.190     1.190   0.0% |
Set symmetry:                        0.001     0.001   0.0% |
TCI: Evaluate splines:               0.352     0.352   0.0% |
mktci:                               0.021     0.021   0.0% |
Other:                              17.723    17.723   0.1% |
-----------------------------------------------------------
Total:                                     12173.420 100.0%

Memory usage: 1.62 GiB
Date: Wed Feb 18 23:44:52 2026
