
  ___ ___ ___ _ _ _  
 |   |   |_  | | | | 
 | | | | | . | | | | 
 |__ |  _|___|_____|  25.7.0
 |___|_|             

User:   ubuntu@third-test
Date:   Tue Feb 17 22:33:46 2026
Arch:   x86_64
Pid:    2718679
CWD:    /mnt/vdd1/work/cemea/fairchem/src/fairchem/applications/ocx/mo_h_adsorption_workflow
Python: 3.10.16
gpaw:   /home/ubuntu/.pyenv/versions/cemea-env/lib/python3.10/site-packages/gpaw
_gpaw:  /home/ubuntu/.pyenv/versions/cemea-env/lib/python3.10/site-packages/
        _gpaw.cpython-310-x86_64-linux-gnu.so
ase:    /home/ubuntu/.pyenv/versions/cemea-env/lib/python3.10/site-packages/ase (version 3.27.0)
numpy:  /home/ubuntu/.pyenv/versions/cemea-env/lib/python3.10/site-packages/numpy (version 2.2.6)
scipy:  /home/ubuntu/.pyenv/versions/cemea-env/lib/python3.10/site-packages/scipy (version 1.15.3)
libxc:  2.x.y
units:  Angstrom and eV
cores: 1
OpenMP: False
OMP_NUM_THREADS: 1

Input parameters:
  basis: dzp
  convergence: {density: 0.0001,
                eigenstates: 1e-05,
                energy: 1e-05}
  kpts: [4 4 1]
  mode: lcao

System changes: positions, numbers, cell, pbc, initial_charges, initial_magmoms 

Initialize ...

species:
  Mo:
    name: Molybdenum
    id: ac24daaf086600a00ce6d19a74574df1
    Z: 42.0
    valence: 14
    core: 28
    charge: 0.0
    file: /home/ubuntu/.pyenv/versions/cemea-env/lib/python3.10/site-packages/gpaw_data/setups/Mo.LDA.gz
    compensation charges: {type: gauss,
                           rc: 0.38,
                           lmax: 2}
    cutoffs: {filter: 2.16,
              core: 1.42}
    projectors:
      #              energy  rcut
      - 4s(2.00)   -64.384   1.238
      - 5s(1.00)    -4.319   1.238
      - 4p(6.00)   -38.595   1.296
      - 5p(0.00)    -1.161   1.296
      - 4d(5.00)    -3.933   1.296
      -  d          23.278   1.296
  
    # LCAO basis set for Mo:
    #   Name: dzp
    #   File: /home/ubuntu/.pyenv/versions/cemea-env/lib/python3.10/site-packages/gpaw_data/setups/Mo.dzp.basis.gz
    #   Number of radial functions: 11
    #   Number of spherical harmonics: 29
    #     l=0, rc=3.5469 Bohr: 4s-sz confined orbital
    #     l=0, rc=10.0469 Bohr: 5s-sz confined orbital
    #     l=1, rc=4.0781 Bohr: 4p-sz confined orbital
    #     l=1, rc=14.0938 Bohr: 5p-sz confined orbital
    #     l=2, rc=7.2031 Bohr: 4d-sz confined orbital
    #     l=0, rc=2.1250 Bohr: 4s-dz split-valence wave
    #     l=0, rc=6.1250 Bohr: 5s-dz split-valence wave
    #     l=1, rc=2.5469 Bohr: 4p-dz split-valence wave
    #     l=1, rc=8.7656 Bohr: 5p-dz split-valence wave
    #     l=2, rc=4.2344 Bohr: 4d-dz split-valence wave
    #     l=1, rc=10.0469 Bohr: p-type Gaussian polarization
    #   Number of RI-basis functions 0

  Ir:
    name: Iridium
    id: ca472fc5a58bba06e8299391bae24b72
    Z: 77.0
    valence: 15
    core: 62
    charge: 0.0
    file: /home/ubuntu/.pyenv/versions/cemea-env/lib/python3.10/site-packages/gpaw_data/setups/Ir.LDA.gz
    compensation charges: {type: gauss,
                           rc: 0.40,
                           lmax: 2}
    cutoffs: {filter: 2.40,
              core: 2.36}
    projectors:
      #              energy  rcut
      - 6s(2.00)    -6.559   1.296
      - 5p(6.00)   -54.966   1.328
      - 6p(0.00)    -1.355   1.328
      - 5d(7.00)    -7.377   1.286
      -  s          20.652   1.296
      -  d          19.835   1.286
  
    # LCAO basis set for Ir:
    #   Name: dzp
    #   File: /home/ubuntu/.pyenv/versions/cemea-env/lib/python3.10/site-packages/gpaw_data/setups/Ir.dzp.basis.gz
    #   Number of radial functions: 9
    #   Number of spherical harmonics: 27
    #     l=0, rc=8.4062 Bohr: 6s-sz confined orbital
    #     l=1, rc=3.6406 Bohr: 5p-sz confined orbital
    #     l=1, rc=12.7031 Bohr: 6p-sz confined orbital
    #     l=2, rc=6.0469 Bohr: 5d-sz confined orbital
    #     l=0, rc=4.9844 Bohr: 6s-dz split-valence wave
    #     l=1, rc=2.4062 Bohr: 5p-dz split-valence wave
    #     l=1, rc=7.7969 Bohr: 6p-dz split-valence wave
    #     l=2, rc=3.5938 Bohr: 5d-dz split-valence wave
    #     l=1, rc=8.4062 Bohr: p-type Gaussian polarization
    #   Number of RI-basis functions 0

  N:
    name: Nitrogen
    id: c467cdfa1b75f62c8f7a0469921b1cfb
    Z: 7.0
    valence: 5
    core: 2
    charge: 0.0
    file: /home/ubuntu/.pyenv/versions/cemea-env/lib/python3.10/site-packages/gpaw_data/setups/N.LDA.gz
    compensation charges: {type: gauss,
                           rc: 0.18,
                           lmax: 2}
    cutoffs: {filter: 1.11,
              core: 0.96}
    projectors:
      #              energy  rcut
      - 2s(2.00)   -18.420   0.603
      - 2p(3.00)    -7.237   0.529
      -  s           8.791   0.603
      -  p          19.974   0.529
      -  d           0.000   0.577
  
    # LCAO basis set for N:
    #   Name: dzp
    #   File: /home/ubuntu/.pyenv/versions/cemea-env/lib/python3.10/site-packages/gpaw_data/setups/N.dzp.basis.gz
    #   Number of radial functions: 5
    #   Number of spherical harmonics: 13
    #     l=0, rc=4.8594 Bohr: 2s-sz confined orbital
    #     l=1, rc=6.0625 Bohr: 2p-sz confined orbital
    #     l=0, rc=2.6094 Bohr: 2s-dz split-valence wave
    #     l=1, rc=3.2656 Bohr: 2p-dz split-valence wave
    #     l=2, rc=6.0625 Bohr: d-type Gaussian polarization
    #   Number of RI-basis functions 0

Reference energy: -1260234.426999  # eV

Spin-paired calculation

Convergence criteria:
 Maximum [total energy] change in last 3 cyles: 1e-05 eV / valence electron
 Maximum integral of absolute [dens]ity change: 0.0001 electrons / valence electron
 Maximum integral of absolute [eigenst]ate change: 1e-05 eV^2 / valence electron
 Maximum number of scf [iter]ations: 333
 (Square brackets indicate name in SCF output, whereas a 'c' in
 the SCF output indicates the quantity has converged.)

Symmetries present (total): 2

  ( 1  0  0)  ( 0  1  0)
  ( 0  1  0)  ( 1  0  0)
  ( 0  0  1)  ( 0  0  1)

16 k-points: 4 x 4 x 1 Monkhorst-Pack grid
6 k-points in the irreducible part of the Brillouin zone
       k-points in crystal coordinates                weights
   0:     0.12500000   -0.12500000    0.00000000          2/16
   1:     0.12500000    0.12500000    0.00000000          2/16
   2:     0.37500000   -0.37500000    0.00000000          2/16
   3:     0.37500000   -0.12500000    0.00000000          4/16
   4:     0.37500000    0.12500000    0.00000000          4/16
   5:     0.37500000    0.37500000    0.00000000          2/16

Wave functions: LCAO
  Diagonalizer: Serial LAPACK
  Atomic Correction: dense with blas
  Data-type: complex
 

Occupation numbers: Fermi-Dirac:
  width: 0.1000  # eV
 

Eigensolver
   LCAO using direct dense diagonalizer 

Densities:
  Coarse grid: 40*40*92 grid
  Fine grid: 80*80*184 grid
  Total Charge: 0.000000 

Density mixing:
  Method: separate
  Backend: pulay
  Linear mixing parameter: 0.05
  old densities: 5
  Damping of long wavelength oscillations: 50 

Hamiltonian:
  XC and Coulomb potentials evaluated on a 80*80*184 grid
  Using the LDA Exchange-Correlation functional
  Interpolation: tri-quintic (5. degree polynomial)
  Poisson solver: FastPoissonSolver using
    Stencil: 6*3+1=19 point O(h^6) finite-difference Laplacian
    FFT axes: [np.int64(0), np.int64(1), np.int64(2)]
    FST axes: []
 

Memory estimate:
  Process memory now: 1340.54 MiB
  Calculator: 197.66 MiB
    Density: 80.57 MiB
      Arrays: 29.20 MiB
      Localized functions: 40.14 MiB
      Mixer: 11.23 MiB
    Hamiltonian: 21.79 MiB
      Arrays: 19.09 MiB
      XC: 0.00 MiB
      Poisson: 0.00 MiB
      vbar: 2.69 MiB
    Wavefunctions: 95.30 MiB
      C [qnM]: 2.17 MiB
      S, T [2 x qmm]: 14.56 MiB
      P [aqMi]: 0.32 MiB
      BasisFunctions: 78.26 MiB
      Eigensolver: 0.00 MiB

Total number of cores used: 1

Number of atoms: 12
Number of atomic orbitals: 282
Number of bands in calculation: 84
Number of valence electrons: 133
Bands to converge: occupied

... initialized

Initializing position-dependent things.

Density initialized from atomic densities
      .-------------------.  
     /|                   |  
    / |                   |  
   /  |                   |  
  /   |                   |  
 *    |                   |  
 |    |                   |  
 |    |                   |  
 |    |                   |  
 |    |                   |  
 |    |                   |  
 |    |   Mo        Mo    |  
 |    |                   |  
 |    |Ir        Mo       |  
 |    |   N         N     |  
 |  Mo|       Mo          |  
 |    |N         N        |  
 Mo   |    Mo             |  
 |    |                   |  
 |    |                   |  
 |    |                   |  
 |    |                   |  
 |    .-------------------.  
 |   /                   /   
 |  /                   /    
 | /                   /     
 |/                   /      
 *-------------------*       

Atomic positions and initial magnetic moments

Positions:
   0 Mo     0.000000    0.000000    8.000000    ( 0.0000,  0.0000,  0.0000)
   1 Ir     2.080000    2.080000   10.080000    ( 0.0000,  0.0000,  0.0000)
   2 N      2.080000    2.080000    8.000000    ( 0.0000,  0.0000,  0.0000)
   3 Mo     0.000000    4.160000    8.000000    ( 0.0000,  0.0000,  0.0000)
   4 Mo     2.080000    6.240000   10.080000    ( 0.0000,  0.0000,  0.0000)
   5 N      2.080000    6.240000    8.000000    ( 0.0000,  0.0000,  0.0000)
   6 Mo     4.160000    0.000000    8.000000    ( 0.0000,  0.0000,  0.0000)
   7 Mo     6.240000    2.080000   10.080000    ( 0.0000,  0.0000,  0.0000)
   8 N      6.240000    2.080000    8.000000    ( 0.0000,  0.0000,  0.0000)
   9 Mo     4.160000    4.160000    8.000000    ( 0.0000,  0.0000,  0.0000)
  10 Mo     6.240000    6.240000   10.080000    ( 0.0000,  0.0000,  0.0000)
  11 N      6.240000    6.240000    8.000000    ( 0.0000,  0.0000,  0.0000)

Unit cell:
           periodic     x           y           z      points  spacing
  1. axis:    yes    8.320000    0.000000    0.000000    40     0.2080
  2. axis:    yes    0.000000    8.320000    0.000000    40     0.2080
  3. axis:    yes    0.000000    0.000000   18.080000    92     0.1965

  Lengths:   8.320000   8.320000  18.080000
  Angles:   90.000000  90.000000  90.000000

Effective grid spacing dv^(1/3) = 0.2041

     iter     time        total  log10-change:
                         energy   eigst   dens
iter:   1 22:35:02   -92.877581        c
iter:   2 22:36:19   -83.309019        c -0.86
iter:   3 22:37:49   -80.465615        c -1.01
iter:   4 22:39:17   -77.580131        c -1.03
iter:   5 22:40:45   -77.336467        c -1.17
iter:   6 22:42:04   -75.961688        c -1.17
iter:   7 22:43:24   -74.373117        c -1.26
iter:   8 22:44:49   -74.117691        c -1.49
iter:   9 22:46:11   -74.001573        c -1.66
iter:  10 22:47:42   -73.953608        c -1.80
iter:  11 22:48:51   -73.950070        c -1.88
iter:  12 22:50:06   -73.875715        c -1.91
iter:  13 22:51:30   -73.857032        c -2.12
iter:  14 22:52:50   -73.856759        c -2.28
iter:  15 22:54:13   -73.850171        c -2.35
iter:  16 22:55:36   -73.845826        c -2.44
iter:  17 22:56:57   -73.843151        c -2.71
iter:  18 22:58:20   -73.841840        c -2.87
iter:  19 22:59:48   -73.841711        c -2.93
iter:  20 23:01:08   -73.841510c       c -2.96
iter:  21 23:02:34   -73.841411c       c -3.05
iter:  22 23:03:49   -73.841450c       c -3.08
iter:  23 23:05:05   -73.841834c       c -3.14
iter:  24 23:06:25   -73.841798c       c -3.19
iter:  25 23:07:50   -73.842103c       c -3.26
iter:  26 23:09:17   -73.841994c       c -3.23
iter:  27 23:10:39   -73.842195c       c -3.41
iter:  28 23:11:56   -73.842025c       c -3.67
iter:  29 23:13:14   -73.842073c       c -3.89
iter:  30 23:14:30   -73.842102c       c -4.06c

Converged after 30 iterations.

Dipole moment: (-5.133590, -5.133590, 0.303656) |e|*Ang

Energy contributions relative to reference atoms: (reference = -1260234.426999)

Kinetic:       -186.648556
Potential:     +127.176783
External:        +0.000000
XC:             -15.716096
Entropy (-ST):   -1.407523
Local:           +2.049529
SIC:             +0.000000
--------------------------
Free energy:    -74.545863
Extrapolated:   -73.842102

Showing only first 2 kpts
 Kpt  Band  Eigenvalues  Occupancy
  0    64     -2.07251    0.99155
  0    65     -2.06276    0.94287
  0    66     -2.04455    0.85282
  0    67     -2.02862    0.77594

  1    64     -2.07251    0.99155
  1    65     -2.06276    0.94287
  1    66     -2.04455    0.85281
  1    67     -2.02862    0.77594


Fermi level: -2.07420

No gap
No difference between direct/indirect transitions
Timing:                              incl.     excl.
-----------------------------------------------------------
Basic WFS set positions:             0.000     0.000   0.0% |
Basis functions set positions:       0.083     0.083   0.0% |
LCAO WFS Initialize:                 0.372     0.057   0.0% |
 Hamiltonian:                        0.314     0.000   0.0% |
  Atomic:                            0.078     0.001   0.0% |
   XC Correction:                    0.077     0.077   0.0% |
  Calculate atomic Hamiltonians:     0.008     0.008   0.0% |
  Communicate:                       0.000     0.000   0.0% |
  Hartree integrate/restrict:        0.018     0.018   0.0% |
  Initialize Hamiltonian:            0.000     0.000   0.0% |
  Poisson:                           0.133     0.007   0.0% |
   Communicate from 1D:              0.020     0.020   0.0% |
   Communicate from 2D:              0.017     0.017   0.0% |
   Communicate to 1D:                0.021     0.021   0.0% |
   Communicate to 2D:                0.021     0.021   0.0% |
   FFT 1D:                           0.017     0.017   0.0% |
   FFT 2D:                           0.030     0.030   0.0% |
  XC 3D grid:                        0.059     0.059   0.0% |
  vbar:                              0.018     0.018   0.0% |
P tci:                               0.429     0.429   0.0% |
SCF-cycle:                        2441.219     0.039   0.0% |
 Density:                          259.350     0.001   0.0% |
  Atomic density matrices:           0.086     0.086   0.0% |
  Mix:                               9.676     9.676   0.4% |
  Multipole moments:                 0.007     0.007   0.0% |
  Normalize:                         0.003     0.003   0.0% |
  Pseudo density:                  249.577     0.017   0.0% |
   Calculate density matrix:         5.414     5.414   0.2% |
   Construct density:              244.030   244.030  10.0% |---|
   Symmetrize density:               0.116     0.116   0.0% |
 Hamiltonian:                       10.359     0.003   0.0% |
  Atomic:                            2.364     0.033   0.0% |
   XC Correction:                    2.331     2.331   0.1% |
  Calculate atomic Hamiltonians:     0.246     0.246   0.0% |
  Communicate:                       0.000     0.000   0.0% |
  Hartree integrate/restrict:        1.051     1.051   0.0% |
  Poisson:                           3.936     0.193   0.0% |
   Communicate from 1D:              0.601     0.601   0.0% |
   Communicate from 2D:              0.537     0.537   0.0% |
   Communicate to 1D:                0.491     0.491   0.0% |
   Communicate to 2D:                0.675     0.675   0.0% |
   FFT 1D:                           0.535     0.535   0.0% |
   FFT 2D:                           0.904     0.904   0.0% |
  XC 3D grid:                        2.229     2.229   0.1% |
  vbar:                              0.531     0.531   0.0% |
 LCAO eigensolver:                2171.471     0.057   0.0% |
  Calculate projections:             7.210     7.210   0.3% |
  DenseAtomicCorrection:            33.332    33.332   1.4% ||
  Distribute overlap matrix:         0.031     0.031   0.0% |
  Orbital Layouts:                2064.107  2064.107  84.5% |---------------------------------|
  Potential matrix:                 61.394    61.394   2.5% ||
  Sum over cells:                    5.340     5.340   0.2% |
ST tci:                              0.290     0.290   0.0% |
Set symmetry:                        0.001     0.001   0.0% |
TCI: Evaluate splines:               0.682     0.682   0.0% |
mktci:                               0.006     0.006   0.0% |
Other:                               0.805     0.805   0.0% |
-----------------------------------------------------------
Total:                                      2443.887 100.0%

Memory usage: 1.31 GiB
Date: Tue Feb 17 23:14:30 2026
