
  ___ ___ ___ _ _ _  
 |   |   |_  | | | | 
 | | | | | . | | | | 
 |__ |  _|___|_____|  25.7.0
 |___|_|             

User:   mikei@Z790-AORUS-ELITE-AX
Date:   Fri Mar  6 19:34:23 2026
Arch:   x86_64
Pid:    89048
CWD:    /home/mikei/Dokumenty/code/cemea/ocx
Python: 3.10.16
gpaw:   /home/mikei/.pyenv/versions/cemea-env/lib/python3.10/site-packages/gpaw
_gpaw:  /home/mikei/.pyenv/versions/cemea-env/lib/python3.10/site-packages/
        _gpaw.cpython-310-x86_64-linux-gnu.so
ase:    /home/mikei/.pyenv/versions/cemea-env/lib/python3.10/site-packages/ase (version 3.27.0)
numpy:  /home/mikei/.pyenv/versions/cemea-env/lib/python3.10/site-packages/numpy (version 2.2.6)
scipy:  /home/mikei/.pyenv/versions/cemea-env/lib/python3.10/site-packages/scipy (version 1.15.3)
libxc:  2.x.y
units:  Angstrom and eV
cores: 1
OpenMP: False
OMP_NUM_THREADS: 1

Input parameters:
  basis: dzp
  convergence: {density: 0.0001,
                eigenstates: 1e-05,
                energy: 1e-05}
  kpts: [4 4 1]
  mode: lcao

System changes: positions, numbers, cell, pbc, initial_charges, initial_magmoms 

Initialize ...

species:
  Ni:
    name: Nickel
    id: 1802175e8de9ea26d9f4394ec1a7d564
    Z: 28.0
    valence: 16
    core: 12
    charge: 0.0
    file: /home/mikei/.pyenv/versions/cemea-env/lib/python3.10/site-packages/gpaw_data/setups/Ni.LDA.gz
    compensation charges: {type: gauss,
                           rc: 0.36,
                           lmax: 2}
    cutoffs: {filter: 2.14,
              core: 1.98}
    projectors:
      #              energy  rcut
      - 4s(2.00)    -5.858   1.164
      - 3p(6.00)   -71.266   1.207
      - 4p(0.00)    -1.338   1.207
      - 3d(8.00)    -9.141   1.138
      -  s          21.353   1.164
      -  d          18.071   1.138
  
    # LCAO basis set for Ni:
    #   Name: dzp
    #   File: /home/mikei/.pyenv/versions/cemea-env/lib/python3.10/site-packages/gpaw_data/setups/Ni.dzp.basis.gz
    #   Number of radial functions: 9
    #   Number of spherical harmonics: 27
    #     l=0, rc=8.5156 Bohr: 4s-sz confined orbital
    #     l=1, rc=2.9375 Bohr: 3p-sz confined orbital
    #     l=1, rc=12.4062 Bohr: 4p-sz confined orbital
    #     l=2, rc=4.6875 Bohr: 3d-sz confined orbital
    #     l=0, rc=4.9688 Bohr: 4s-dz split-valence wave
    #     l=1, rc=2.0781 Bohr: 3p-dz split-valence wave
    #     l=1, rc=7.5469 Bohr: 4p-dz split-valence wave
    #     l=2, rc=2.9375 Bohr: 3d-dz split-valence wave
    #     l=1, rc=8.5156 Bohr: p-type Gaussian polarization
    #   Number of RI-basis functions 0

  Mo:
    name: Molybdenum
    id: ac24daaf086600a00ce6d19a74574df1
    Z: 42.0
    valence: 14
    core: 28
    charge: 0.0
    file: /home/mikei/.pyenv/versions/cemea-env/lib/python3.10/site-packages/gpaw_data/setups/Mo.LDA.gz
    compensation charges: {type: gauss,
                           rc: 0.38,
                           lmax: 2}
    cutoffs: {filter: 2.16,
              core: 1.42}
    projectors:
      #              energy  rcut
      - 4s(2.00)   -64.384   1.238
      - 5s(1.00)    -4.319   1.238
      - 4p(6.00)   -38.595   1.296
      - 5p(0.00)    -1.161   1.296
      - 4d(5.00)    -3.933   1.296
      -  d          23.278   1.296
  
    # LCAO basis set for Mo:
    #   Name: dzp
    #   File: /home/mikei/.pyenv/versions/cemea-env/lib/python3.10/site-packages/gpaw_data/setups/Mo.dzp.basis.gz
    #   Number of radial functions: 11
    #   Number of spherical harmonics: 29
    #     l=0, rc=3.5469 Bohr: 4s-sz confined orbital
    #     l=0, rc=10.0469 Bohr: 5s-sz confined orbital
    #     l=1, rc=4.0781 Bohr: 4p-sz confined orbital
    #     l=1, rc=14.0938 Bohr: 5p-sz confined orbital
    #     l=2, rc=7.2031 Bohr: 4d-sz confined orbital
    #     l=0, rc=2.1250 Bohr: 4s-dz split-valence wave
    #     l=0, rc=6.1250 Bohr: 5s-dz split-valence wave
    #     l=1, rc=2.5469 Bohr: 4p-dz split-valence wave
    #     l=1, rc=8.7656 Bohr: 5p-dz split-valence wave
    #     l=2, rc=4.2344 Bohr: 4d-dz split-valence wave
    #     l=1, rc=10.0469 Bohr: p-type Gaussian polarization
    #   Number of RI-basis functions 0

  B:
    name: Boron
    id: 02e2e0e88ef95f403158802f6b0f4231
    Z: 5.0
    valence: 3
    core: 2
    charge: 0.0
    file: /home/mikei/.pyenv/versions/cemea-env/lib/python3.10/site-packages/gpaw_data/setups/B.LDA.gz
    compensation charges: {type: gauss,
                           rc: 0.20,
                           lmax: 2}
    cutoffs: {filter: 1.14,
              core: 1.42}
    projectors:
      #              energy  rcut
      - 2s(2.00)    -9.383   0.635
      - 2p(1.00)    -3.714   0.635
      -  s          17.828   0.635
      -  p          23.498   0.635
      -  d           0.000   0.635
  
    # LCAO basis set for B:
    #   Name: dzp
    #   File: /home/mikei/.pyenv/versions/cemea-env/lib/python3.10/site-packages/gpaw_data/setups/B.dzp.basis.gz
    #   Number of radial functions: 5
    #   Number of spherical harmonics: 13
    #     l=0, rc=6.6719 Bohr: 2s-sz confined orbital
    #     l=1, rc=8.2188 Bohr: 2p-sz confined orbital
    #     l=0, rc=3.7500 Bohr: 2s-dz split-valence wave
    #     l=1, rc=4.6094 Bohr: 2p-dz split-valence wave
    #     l=2, rc=8.2188 Bohr: d-type Gaussian polarization
    #   Number of RI-basis functions 0

Reference energy: -2094753.544081  # eV

Spin-paired calculation

Convergence criteria:
 Maximum [total energy] change in last 3 cyles: 1e-05 eV / valence electron
 Maximum integral of absolute [dens]ity change: 0.0001 electrons / valence electron
 Maximum integral of absolute [eigenst]ate change: 1e-05 eV^2 / valence electron
 Maximum number of scf [iter]ations: 333
 (Square brackets indicate name in SCF output, whereas a 'c' in
 the SCF output indicates the quantity has converged.)

Symmetries present (total): 1

  ( 1  0  0)
  ( 0  1  0)
  ( 0  0  1)

16 k-points: 4 x 4 x 1 Monkhorst-Pack grid
8 k-points in the irreducible part of the Brillouin zone
       k-points in crystal coordinates                weights
   0:     0.12500000   -0.37500000    0.00000000          2/16
   1:     0.12500000   -0.12500000    0.00000000          2/16
   2:     0.12500000    0.12500000    0.00000000          2/16
   3:     0.12500000    0.37500000    0.00000000          2/16
   4:     0.37500000   -0.37500000    0.00000000          2/16
   5:     0.37500000   -0.12500000    0.00000000          2/16
   6:     0.37500000    0.12500000    0.00000000          2/16
   7:     0.37500000    0.37500000    0.00000000          2/16

Wave functions: LCAO
  Diagonalizer: Serial LAPACK
  Atomic Correction: dense with blas
  Data-type: complex
 

Occupation numbers: Fermi-Dirac:
  width: 0.1000  # eV
 

Eigensolver
   LCAO using direct dense diagonalizer 

Densities:
  Coarse grid: 32*32*128 grid
  Fine grid: 64*64*256 grid
  Total Charge: 0.000000 

Density mixing:
  Method: separate
  Backend: pulay
  Linear mixing parameter: 0.05
  old densities: 5
  Damping of long wavelength oscillations: 50 

Hamiltonian:
  XC and Coulomb potentials evaluated on a 64*64*256 grid
  Using the LDA Exchange-Correlation functional
  Interpolation: tri-quintic (5. degree polynomial)
  Poisson solver: FastPoissonSolver using
    Stencil: 8*3+1=25 point O(h^6) finite-difference Laplacian
    FFT axes: [np.int64(0), np.int64(1), np.int64(2)]
    FST axes: []
 

Memory estimate:
  Process memory now: 4818.40 MiB
  Calculator: 925.04 MiB
    Density: 191.91 MiB
      Arrays: 26.00 MiB
      Localized functions: 155.91 MiB
      Mixer: 10.00 MiB
    Hamiltonian: 28.78 MiB
      Arrays: 17.00 MiB
      XC: 0.00 MiB
      Poisson: 0.00 MiB
      vbar: 11.78 MiB
    Wavefunctions: 704.35 MiB
      C [qnM]: 65.36 MiB
      S, T [2 x qmm]: 380.25 MiB
      P [aqMi]: 8.04 MiB
      BasisFunctions: 250.71 MiB
      Eigensolver: 0.00 MiB

Total number of cores used: 1

Number of atoms: 48
Number of atomic orbitals: 1248
Number of bands in calculation: 429
Number of valence electrons: 708
Bands to converge: occupied

... initialized

Initializing position-dependent things.

Density initialized from atomic densities
                                         
                                         
                                         
                                         
                                         
                Ni   Ni                  
              Ni    Ni                   
              B      B                   
            B      B                     
         Mo     Mo                       
                                         
       Mo      Moi    Ni    Ni           
                                         
           Ni    NNi   NNi   Ni          
       Ni   NNi   NNi   Ni               
                                         
        Ni    Ni   NNi   Ni    Ni        
               Ni    Ni    Ni            
           Ni    Ni    Ni                
                Ni    Ni    Ni           
           Ni     Ni    Ni               
       Ni    Ni    Ni                    
                                         
                                         
                                         
                                         

Atomic positions and initial magnetic moments

Positions:
   0 Ni     0.000000    0.000000    8.000000    ( 0.0000,  0.0000,  0.0000)
   1 Ni     2.489016    0.000000    8.000000    ( 0.0000,  0.0000,  0.0000)
   2 Ni     4.978032    0.000000    8.000000    ( 0.0000,  0.0000,  0.0000)
   3 Ni     1.244508    2.155551    8.000000    ( 0.0000,  0.0000,  0.0000)
   4 Ni     3.733524    2.155551    8.000000    ( 0.0000,  0.0000,  0.0000)
   5 Ni     6.222540    2.155551    8.000000    ( 0.0000,  0.0000,  0.0000)
   6 Ni     2.489016    4.311102    8.000000    ( 0.0000,  0.0000,  0.0000)
   7 Ni     4.978032    4.311102    8.000000    ( 0.0000,  0.0000,  0.0000)
   8 Ni     7.467048    4.311102    8.000000    ( 0.0000,  0.0000,  0.0000)
   9 Ni     1.244508    0.718517   10.032273    ( 0.0000,  0.0000,  0.0000)
  10 Ni     3.733524    0.718517   10.032273    ( 0.0000,  0.0000,  0.0000)
  11 Ni     6.222540    0.718517   10.032273    ( 0.0000,  0.0000,  0.0000)
  12 Ni     2.489016    2.874068   10.032273    ( 0.0000,  0.0000,  0.0000)
  13 Ni     4.978032    2.874068   10.032273    ( 0.0000,  0.0000,  0.0000)
  14 Ni     7.467048    2.874068   10.032273    ( 0.0000,  0.0000,  0.0000)
  15 Ni     3.733524    5.029619   10.032273    ( 0.0000,  0.0000,  0.0000)
  16 Ni     6.222540    5.029619   10.032273    ( 0.0000,  0.0000,  0.0000)
  17 Ni     8.711556    5.029619   10.032273    ( 0.0000,  0.0000,  0.0000)
  18 Ni     0.000000    1.437034   12.064546    ( 0.0000,  0.0000,  0.0000)
  19 Ni     2.489016    1.437034   12.064546    ( 0.0000,  0.0000,  0.0000)
  20 Ni     4.978032    1.437034   12.064546    ( 0.0000,  0.0000,  0.0000)
  21 Ni     1.244508    3.592585   12.064546    ( 0.0000,  0.0000,  0.0000)
  22 Ni     3.733524    3.592585   12.064546    ( 0.0000,  0.0000,  0.0000)
  23 Ni     6.222540    3.592585   12.064546    ( 0.0000,  0.0000,  0.0000)
  24 Ni     2.489016    5.748136   12.064546    ( 0.0000,  0.0000,  0.0000)
  25 Ni     4.978032    5.748136   12.064546    ( 0.0000,  0.0000,  0.0000)
  26 Ni     7.467048    5.748136   12.064546    ( 0.0000,  0.0000,  0.0000)
  27 Ni     0.000000    0.000000   14.096819    ( 0.0000,  0.0000,  0.0000)
  28 Ni     2.489016    0.000000   14.096819    ( 0.0000,  0.0000,  0.0000)
  29 Ni     4.978032    0.000000   14.096819    ( 0.0000,  0.0000,  0.0000)
  30 Ni     1.244508    2.155551   14.096819    ( 0.0000,  0.0000,  0.0000)
  31 Ni     3.733524    2.155551   14.096819    ( 0.0000,  0.0000,  0.0000)
  32 Ni     6.222540    2.155551   14.096819    ( 0.0000,  0.0000,  0.0000)
  33 Ni     2.489016    4.311102   14.096819    ( 0.0000,  0.0000,  0.0000)
  34 Ni     4.978032    4.311102   14.096819    ( 0.0000,  0.0000,  0.0000)
  35 Ni     7.467048    4.311102   14.096819    ( 0.0000,  0.0000,  0.0000)
  36 Mo     0.000000    0.000000   16.296819    ( 0.0000,  0.0000,  0.0000)
  37 B      1.525000    1.525000   17.821819    ( 0.0000,  0.0000,  0.0000)
  38 Mo     0.000000    3.050000   16.296819    ( 0.0000,  0.0000,  0.0000)
  39 B      1.525000    4.575000   17.821819    ( 0.0000,  0.0000,  0.0000)
  40 Mo     3.050000    0.000000   16.296819    ( 0.0000,  0.0000,  0.0000)
  41 B      4.575000    1.525000   17.821819    ( 0.0000,  0.0000,  0.0000)
  42 Mo     3.050000    3.050000   16.296819    ( 0.0000,  0.0000,  0.0000)
  43 B      4.575000    4.575000   17.821819    ( 0.0000,  0.0000,  0.0000)
  44 Ni     2.525169    1.420450   19.621819    ( 0.0000,  0.0000,  0.0000)
  45 Ni     2.525169    3.820450   19.621819    ( 0.0000,  0.0000,  0.0000)
  46 Ni     4.925169    1.420450   19.621819    ( 0.0000,  0.0000,  0.0000)
  47 Ni     4.925169    3.820450   19.621819    ( 0.0000,  0.0000,  0.0000)

Unit cell:
           periodic     x           y           z      points  spacing
  1. axis:    yes    7.467048    0.000000    0.000000    32     0.2021
  2. axis:    yes    3.733524    6.466653    0.000000    32     0.2021
  3. axis:    yes    0.000000    0.000000   25.821819   128     0.2017

  Lengths:   7.467048   7.467048  25.821819
  Angles:   90.000000  90.000000  60.000000

Effective grid spacing dv^(1/3) = 0.2119

     iter     time        total  log10-change:
                         energy   eigst   dens
iter:   1 19:35:39  -795.677678        c
iter:   2 19:38:01 -4734.147382        c -1.04
iter:   3 19:40:10  -542.275213        c -0.39
iter:   4 19:42:16  -607.458533        c -1.28
iter:   5 19:44:07  -536.756280        c -1.10
iter:   6 19:46:13  -578.364415        c -1.32
iter:   7 19:49:08  -629.095546        c -1.26
iter:   8 19:51:08  -627.380418        c -1.17
iter:   9 19:52:57  -643.374978        c -1.17
iter:  10 19:54:36 -1228.239673        c -1.16
iter:  11 19:56:46  -482.724394        c -0.81
iter:  12 19:59:14  -466.856932        c -1.35
iter:  13 20:01:56  -508.157494        c -1.38
iter:  14 20:04:05  -442.125980        c -1.34
iter:  15 20:06:16  -420.273264        c -1.48
iter:  16 20:08:24  -806.156800        c -1.53
iter:  17 20:10:12  -409.850603        c -0.95
iter:  18 20:12:34  -377.903205        c -1.59
iter:  19 20:15:00  -382.668119        c -1.59
iter:  20 20:17:18  -381.387507        c -1.58
iter:  21 20:18:58  -383.350714        c -1.56
iter:  22 20:21:23  -406.307038        c -1.55
iter:  23 20:23:59  -417.853893        c -1.42
iter:  24 20:26:06  -389.612502        c -1.56
iter:  25 20:28:01  -379.627222        c -1.65
iter:  26 20:29:55  -391.130500        c -1.57
iter:  27 20:32:00  -366.218736        c -1.49
iter:  28 20:33:54  -365.709623        c -1.73
iter:  29 20:35:54  -367.042417        c -1.72
iter:  30 20:38:09  -365.122727        c -1.73
iter:  31 20:40:24  -399.149494        c -1.73
iter:  32 20:42:56  -363.434637        c -1.60
iter:  33 20:45:06  -372.625798        c -1.83
iter:  34 20:47:34  -366.393239        c -1.78
iter:  35 20:49:59  -369.593464        c -1.79
iter:  36 20:52:09  -364.370245        c -1.85
iter:  37 20:54:30  -364.790249        c -1.84
iter:  38 20:56:32  -362.806424        c -2.00
iter:  39 20:58:37  -392.117290        c -1.99
iter:  40 21:01:08  -360.651529        c -1.63
iter:  41 21:03:49  -359.127908        c -2.04
iter:  42 21:06:39  -358.991636        c -2.11
iter:  43 21:08:29  -359.653995        c -2.14
iter:  44 21:10:34  -360.126556        c -2.08
iter:  45 21:12:30  -395.572542        c -2.14
iter:  46 21:14:50  -368.644226        c -1.64
iter:  47 21:17:02  -360.462720        c -1.92
iter:  48 21:19:33  -359.050428        c -2.11
iter:  49 21:21:33  -358.913704        c -2.17
iter:  50 21:24:05  -360.491418        c -2.18
iter:  51 21:27:01  -362.359731        c -2.07
iter:  52 21:28:51  -358.577377        c -2.04
iter:  53 21:31:33  -359.765983        c -2.21
iter:  54 21:33:48  -358.031853        c -2.20
iter:  55 21:35:49  -359.110905        c -2.30
iter:  56 21:38:01  -358.903110        c -2.15
iter:  57 21:40:13  -358.221851        c -2.26
iter:  58 21:42:04  -360.530325        c -2.25
iter:  59 21:44:17  -358.271149        c -2.17
iter:  60 21:46:10  -358.210590        c -2.33
iter:  61 21:48:20  -357.624554        c -2.39
iter:  62 21:50:31  -357.432722        c -2.57
iter:  63 21:52:28  -357.405116        c -2.61
iter:  64 21:54:32  -358.254600        c -2.58
iter:  65 21:56:59  -357.560479        c -2.33
iter:  66 22:00:07  -357.646826        c -2.56
iter:  67 22:02:52  -358.004633        c -2.63
iter:  68 22:05:04  -357.761185        c -2.44
iter:  69 22:06:53  -357.732433        c -2.63
iter:  70 22:08:57  -358.052602        c -2.45
iter:  71 22:11:35  -357.977824        c -2.33
iter:  72 22:14:02  -357.404691        c -2.35
iter:  73 22:16:04  -358.192861        c -2.61
iter:  74 22:18:38  -357.451901        c -2.45
iter:  75 22:20:40  -357.313721        c -2.67
iter:  76 22:23:00  -357.357869        c -2.84
iter:  77 22:25:21  -357.227961        c -2.77
iter:  78 22:27:49  -357.200314        c -3.02
iter:  79 22:29:53  -357.202223        c -3.17
iter:  80 22:32:13  -357.186504        c -3.22
iter:  81 22:34:02  -357.183439        c -3.49
iter:  82 22:36:29  -357.183090c       c -3.53
iter:  83 22:38:31  -357.189465c       c -3.50
iter:  84 22:40:26  -357.189218c       c -3.33
iter:  85 22:42:17  -357.178275        c -3.41
iter:  86 22:44:38  -357.182705        c -3.72
iter:  87 22:47:15  -357.179233c       c -3.49
iter:  88 22:49:22  -357.177932c       c -3.72
iter:  89 22:51:07  -357.189485        c -3.78
iter:  90 22:52:55  -357.178932        c -3.51
iter:  91 22:54:54  -357.181251        c -3.79
iter:  92 22:57:18  -357.187649        c -3.67
iter:  93 22:59:36  -357.178715        c -3.34
iter:  94 23:01:53  -357.179093        c -4.04c
iter:  95 23:04:02  -357.179477c       c -4.05c

Converged after 95 iterations.

Dipole moment: (-25.441164, -10.801332, 0.645870) |e|*Ang

Energy contributions relative to reference atoms: (reference = -2094753.544081)

Kinetic:        +98.258401
Potential:      -53.425874
External:        +0.000000
XC:            -398.787409
Entropy (-ST):   -3.688485
Local:           -1.380353
SIC:             +0.000000
--------------------------
Free energy:   -359.023719
Extrapolated:  -357.179477

Showing only first 2 kpts
 Kpt  Band  Eigenvalues  Occupancy
  0   352      0.83412    1.10282
  0   353      0.86835    0.93213
  0   354      0.88209    0.86418
  0   355      0.88530    0.84844

  1   352      0.76865    1.40576
  1   353      0.77225    1.39062
  1   354      0.78377    1.34073
  1   355      0.79156    1.30584


Fermi level: 0.85475

No gap
No difference between direct/indirect transitions
Timing:                              incl.     excl.
-----------------------------------------------------------
Basic WFS set positions:             0.000     0.000   0.0% |
Basis functions set positions:       0.172     0.172   0.0% |
LCAO WFS Initialize:                 0.371     0.086   0.0% |
 Hamiltonian:                        0.285     0.000   0.0% |
  Atomic:                            0.155     0.002   0.0% |
   XC Correction:                    0.153     0.153   0.0% |
  Calculate atomic Hamiltonians:     0.023     0.023   0.0% |
  Communicate:                       0.000     0.000   0.0% |
  Hartree integrate/restrict:        0.010     0.010   0.0% |
  Initialize Hamiltonian:            0.001     0.001   0.0% |
  Poisson:                           0.058     0.004   0.0% |
   Communicate from 1D:              0.006     0.006   0.0% |
   Communicate from 2D:              0.008     0.008   0.0% |
   Communicate to 1D:                0.007     0.007   0.0% |
   Communicate to 2D:                0.007     0.007   0.0% |
   FFT 1D:                           0.007     0.007   0.0% |
   FFT 2D:                           0.020     0.020   0.0% |
  XC 3D grid:                        0.035     0.035   0.0% |
  vbar:                              0.004     0.004   0.0% |
P tci:                               4.889     4.889   0.0% |
SCF-cycle:                       12566.031     0.452   0.0% |
 Density:                         6272.729     0.002   0.0% |
  Atomic density matrices:           1.764     1.764   0.0% |
  Mix:                              12.572    12.572   0.1% |
  Multipole moments:                 0.026     0.026   0.0% |
  Normalize:                         0.009     0.009   0.0% |
  Pseudo density:                 6258.358     0.036   0.0% |
   Calculate density matrix:        20.793    20.793   0.2% |
   Construct density:             6237.527  6237.527  49.6% |-------------------|
   Symmetrize density:               0.002     0.002   0.0% |
 Hamiltonian:                       29.422     0.004   0.0% |
  Atomic:                           14.572     0.170   0.0% |
   XC Correction:                   14.402    14.402   0.1% |
  Calculate atomic Hamiltonians:     2.184     2.184   0.0% |
  Communicate:                       0.000     0.000   0.0% |
  Hartree integrate/restrict:        0.919     0.919   0.0% |
  Poisson:                           5.187     0.401   0.0% |
   Communicate from 1D:              0.554     0.554   0.0% |
   Communicate from 2D:              0.587     0.587   0.0% |
   Communicate to 1D:                0.540     0.540   0.0% |
   Communicate to 2D:                0.659     0.659   0.0% |
   FFT 1D:                           0.605     0.605   0.0% |
   FFT 2D:                           1.840     1.840   0.0% |
  XC 3D grid:                        5.465     5.465   0.0% |
  vbar:                              1.092     1.092   0.0% |
 LCAO eigensolver:                6263.428     2.485   0.0% |
  Calculate projections:           160.145   160.145   1.3% ||
  DenseAtomicCorrection:           449.923   449.923   3.6% ||
  Distribute overlap matrix:         5.605     5.605   0.0% |
  Orbital Layouts:                4446.985  4446.985  35.4% |-------------|
  Potential matrix:                981.760   981.760   7.8% |--|
  Sum over cells:                  216.526   216.526   1.7% ||
ST tci:                              2.091     2.091   0.0% |
Set symmetry:                        0.000     0.000   0.0% |
TCI: Evaluate splines:               0.322     0.322   0.0% |
mktci:                               0.027     0.027   0.0% |
Other:                               5.491     5.491   0.0% |
-----------------------------------------------------------
Total:                                     12579.394 100.0%

Memory usage: 4.71 GiB
Date: Fri Mar  6 23:04:02 2026
