
  ___ ___ ___ _ _ _  
 |   |   |_  | | | | 
 | | | | | . | | | | 
 |__ |  _|___|_____|  25.7.0
 |___|_|             

User:   mikei@Z790-AORUS-ELITE-AX
Date:   Sat Mar  7 02:19:40 2026
Arch:   x86_64
Pid:    89048
CWD:    /home/mikei/Dokumenty/code/cemea/ocx
Python: 3.10.16
gpaw:   /home/mikei/.pyenv/versions/cemea-env/lib/python3.10/site-packages/gpaw
_gpaw:  /home/mikei/.pyenv/versions/cemea-env/lib/python3.10/site-packages/
        _gpaw.cpython-310-x86_64-linux-gnu.so
ase:    /home/mikei/.pyenv/versions/cemea-env/lib/python3.10/site-packages/ase (version 3.27.0)
numpy:  /home/mikei/.pyenv/versions/cemea-env/lib/python3.10/site-packages/numpy (version 2.2.6)
scipy:  /home/mikei/.pyenv/versions/cemea-env/lib/python3.10/site-packages/scipy (version 1.15.3)
libxc:  2.x.y
units:  Angstrom and eV
cores: 1
OpenMP: False
OMP_NUM_THREADS: 1

Input parameters:
  basis: dzp
  convergence: {density: 0.0001,
                eigenstates: 1e-05,
                energy: 1e-05}
  kpts: [1 1 1]
  mode: lcao

System changes: positions, numbers, cell, pbc, initial_charges, initial_magmoms 

Initialize ...

species:
  H:
    name: Hydrogen
    id: 4766778ce56282eaa64abeb28b7c1de3
    Z: 1.0
    valence: 1
    core: 0
    charge: 0.0
    file: /home/mikei/.pyenv/versions/cemea-env/lib/python3.10/site-packages/gpaw_data/setups/H.LDA.gz
    compensation charges: {type: gauss,
                           rc: 0.15,
                           lmax: 2}
    cutoffs: {filter: 0.85,
              core: 0.53}
    projectors:
      #              energy  rcut
      - 1s(1.00)    -6.353   0.476
      -  s          20.858   0.476
      -  p           0.000   0.476
  
    # LCAO basis set for H:
    #   Name: dzp
    #   File: /home/mikei/.pyenv/versions/cemea-env/lib/python3.10/site-packages/gpaw_data/setups/H.dzp.basis.gz
    #   Number of radial functions: 3
    #   Number of spherical harmonics: 5
    #     l=0, rc=6.4219 Bohr: 1s-sz confined orbital
    #     l=0, rc=3.6094 Bohr: 1s-dz split-valence wave
    #     l=1, rc=6.4219 Bohr: p-type Gaussian polarization
    #   Number of RI-basis functions 0

Reference energy: -24.257917  # eV

Spin-paired calculation

Convergence criteria:
 Maximum [total energy] change in last 3 cyles: 1e-05 eV / valence electron
 Maximum integral of absolute [dens]ity change: 0.0001 electrons / valence electron
 Maximum integral of absolute [eigenst]ate change: 1e-05 eV^2 / valence electron
 Maximum number of scf [iter]ations: 333
 (Square brackets indicate name in SCF output, whereas a 'c' in
 the SCF output indicates the quantity has converged.)

Symmetries present (total): 16

  ( 1  0  0)  ( 1  0  0)  ( 1  0  0)  ( 1  0  0)  ( 0  1  0)  ( 0  1  0)
  ( 0  1  0)  ( 0  1  0)  ( 0 -1  0)  ( 0 -1  0)  ( 1  0  0)  ( 1  0  0)
  ( 0  0  1)  ( 0  0 -1)  ( 0  0  1)  ( 0  0 -1)  ( 0  0  1)  ( 0  0 -1)

  ( 0  1  0)  ( 0  1  0)  ( 0 -1  0)  ( 0 -1  0)  ( 0 -1  0)  ( 0 -1  0)
  (-1  0  0)  (-1  0  0)  ( 1  0  0)  ( 1  0  0)  (-1  0  0)  (-1  0  0)
  ( 0  0  1)  ( 0  0 -1)  ( 0  0  1)  ( 0  0 -1)  ( 0  0  1)  ( 0  0 -1)

  (-1  0  0)  (-1  0  0)  (-1  0  0)  (-1  0  0)
  ( 0  1  0)  ( 0  1  0)  ( 0 -1  0)  ( 0 -1  0)
  ( 0  0  1)  ( 0  0 -1)  ( 0  0  1)  ( 0  0 -1)

1 k-point (Gamma)
1 k-point in the irreducible part of the Brillouin zone
       k-points in crystal coordinates                weights
   0:     0.00000000    0.00000000    0.00000000          1/1

Wave functions: LCAO
  Diagonalizer: Serial LAPACK
  Atomic Correction: dense with blas
  Data-type: float
 

Occupation numbers: # Zero width 

Eigensolver
   LCAO using direct dense diagonalizer 

Densities:
  Coarse grid: 100*100*104 grid
  Fine grid: 200*200*208 grid
  Total Charge: 0.000000 

Density mixing:
  Method: separate
  Backend: pulay
  Linear mixing parameter: 0.25
  old densities: 3
  Damping of long wavelength oscillations: 1  # (no daming) 

Hamiltonian:
  XC and Coulomb potentials evaluated on a 200*200*208 grid
  Using the LDA Exchange-Correlation functional
  Interpolation: tri-quintic (5. degree polynomial)
  Poisson solver: FastPoissonSolver using
    Stencil: 6*3+1=19 point O(h^6) finite-difference Laplacian
    FFT axes: []
    FST axes: [np.int64(0), np.int64(1), np.int64(2)]
 

Memory estimate:
  Process memory now: 4818.40 MiB
  Calculator: 383.88 MiB
    Density: 249.74 MiB
      Arrays: 203.03 MiB
      Localized functions: 0.50 MiB
      Mixer: 46.21 MiB
    Hamiltonian: 132.82 MiB
      Arrays: 132.78 MiB
      XC: 0.00 MiB
      Poisson: 0.00 MiB
      vbar: 0.04 MiB
    Wavefunctions: 1.31 MiB
      C [qnM]: 0.00 MiB
      S, T [2 x qmm]: 0.00 MiB
      P [aqMi]: 0.00 MiB
      BasisFunctions: 1.31 MiB
      Eigensolver: 0.00 MiB

Total number of cores used: 1

Number of atoms: 2
Number of atomic orbitals: 10
Number of bands in calculation: 2
Number of valence electrons: 2
Bands to converge: occupied

... initialized

Initializing position-dependent things.

Density initialized from atomic densities
             .------------------------------------------------.  
            /|                                                |  
           / |                                                |  
          /  |                                                |  
         /   |                                                |  
        /    |                                                |  
       /     |                                                |  
      /      |                                                |  
     /       |                                                |  
    /        |                                                |  
   /         |                                                |  
  /          |                                                |  
 *           |                                                |  
 |           |                                                |  
 |           |                                                |  
 |           |                                                |  
 |           |                                                |  
 |           |                                                |  
 |           |                 H                              |  
 |           |                 H                              |  
 |           |                                                |  
 |           |                                                |  
 |           |                                                |  
 |           |                                                |  
 |           |                                                |  
 |           .------------------------------------------------.  
 |          /                                                /   
 |         /                                                /    
 |        /                                                /     
 |       /                                                /      
 |      /                                                /       
 |     /                                                /        
 |    /                                                /         
 |   /                                                /          
 |  /                                                /           
 | /                                                /            
 |/                                                /             
 *------------------------------------------------*              

Atomic positions and initial magnetic moments

Positions:
   0 H     10.000000   10.000000   10.000000    ( 0.0000,  0.0000,  0.0000)
   1 H     10.000000   10.000000   10.750000    ( 0.0000,  0.0000,  0.0000)

Unit cell:
           periodic     x           y           z      points  spacing
  1. axis:    no    20.000000    0.000000    0.000000   100     0.2000
  2. axis:    no     0.000000   20.000000    0.000000   100     0.2000
  3. axis:    no     0.000000    0.000000   20.750000   104     0.1995

  Lengths:  20.000000  20.000000  20.750000
  Angles:   90.000000  90.000000  90.000000

Effective grid spacing dv^(1/3) = 0.1998

     iter     time        total  log10-change:
                         energy   eigst   dens
iter:   1 02:19:44    -6.803403        c
iter:   2 02:19:45    -6.613268        c -0.50
iter:   3 02:19:46    -6.438351        c -0.66
iter:   4 02:19:47    -6.438922        c -2.03
iter:   5 02:19:48    -6.438413        c -1.93
iter:   6 02:19:49    -6.438413        c -4.01c
iter:   7 02:19:50    -6.438413c       c -4.15c

Converged after 7 iterations.

Dipole moment: (0.000000, 0.000000, 0.000000) |e|*Ang

Energy contributions relative to reference atoms: (reference = -24.257917)

Kinetic:         +5.502119
Potential:       -6.967241
External:        +0.000000
XC:              -4.948119
Entropy (-ST):   +0.000000
Local:           -0.025172
SIC:             +0.000000
--------------------------
Free energy:     -6.438413
Extrapolated:    -6.438413

 Band  Eigenvalues  Occupancy
    0    -10.14570    2.00000
    1      2.23660    0.00000

Fermi level: -3.95455

Gap: 12.382 eV
Transition (v -> c):
  (s=0, k=0, n=0, [0.00, 0.00, 0.00]) -> (s=0, k=0, n=1, [0.00, 0.00, 0.00])
No difference between direct/indirect transitions
Timing:                              incl.     excl.
-----------------------------------------------------------
Basic WFS set positions:             0.000     0.000   0.0% |
Basis functions set positions:       0.001     0.001   0.0% |
LCAO WFS Initialize:                 0.779     0.042   0.4% |
 Hamiltonian:                        0.737     0.000   0.0% |
  Atomic:                            0.004     0.000   0.0% |
   XC Correction:                    0.003     0.003   0.0% |
  Calculate atomic Hamiltonians:     0.000     0.000   0.0% |
  Communicate:                       0.000     0.000   0.0% |
  Hartree integrate/restrict:        0.059     0.059   0.6% |
  Initialize Hamiltonian:            0.000     0.000   0.0% |
  Poisson:                           0.453     0.028   0.3% |
   Communicate from 1D:              0.043     0.043   0.4% |
   Communicate from 2D:              0.044     0.044   0.4% |
   Communicate to 1D:                0.043     0.043   0.4% |
   Communicate to 2D:                0.044     0.044   0.4% |
   FFT 1D:                           0.082     0.082   0.8% |
   FFT 2D:                           0.169     0.169   1.7% ||
  XC 3D grid:                        0.213     0.213   2.1% ||
  vbar:                              0.008     0.008   0.1% |
P tci:                               0.001     0.001   0.0% |
SCF-cycle:                           6.192     0.002   0.0% |
 Density:                            1.723     0.000   0.0% |
  Atomic density matrices:           0.002     0.002   0.0% |
  Mix:                               0.611     0.611   6.0% |-|
  Multipole moments:                 0.000     0.000   0.0% |
  Normalize:                         0.002     0.002   0.0% |
  Pseudo density:                    1.109     0.007   0.1% |
   Calculate density matrix:         0.000     0.000   0.0% |
   Construct density:                0.008     0.008   0.1% |
   Symmetrize density:               1.094     1.094  10.8% |---|
 Hamiltonian:                        4.456     0.000   0.0% |
  Atomic:                            0.021     0.001   0.0% |
   XC Correction:                    0.020     0.020   0.2% |
  Calculate atomic Hamiltonians:     0.002     0.002   0.0% |
  Communicate:                       0.000     0.000   0.0% |
  Hartree integrate/restrict:        0.354     0.354   3.5% ||
  Poisson:                           2.701     0.122   1.2% |
   Communicate from 1D:              0.261     0.261   2.6% ||
   Communicate from 2D:              0.265     0.265   2.6% ||
   Communicate to 1D:                0.266     0.266   2.6% ||
   Communicate to 2D:                0.262     0.262   2.6% ||
   FFT 1D:                           0.500     0.500   4.9% |-|
   FFT 2D:                           1.026     1.026  10.2% |---|
  XC 3D grid:                        1.283     1.283  12.7% |----|
  vbar:                              0.095     0.095   0.9% |
 LCAO eigensolver:                   0.011     0.000   0.0% |
  Calculate projections:             0.000     0.000   0.0% |
  DenseAtomicCorrection:             0.001     0.001   0.0% |
  Distribute overlap matrix:         0.000     0.000   0.0% |
  Orbital Layouts:                   0.001     0.001   0.0% |
  Potential matrix:                  0.009     0.009   0.1% |
ST tci:                              0.000     0.000   0.0% |
Set symmetry:                        0.001     0.001   0.0% |
TCI: Evaluate splines:               0.004     0.004   0.0% |
mktci:                               0.000     0.000   0.0% |
Other:                               3.127     3.127  30.9% |-----------|
-----------------------------------------------------------
Total:                                        10.107 100.0%

Memory usage: 4.71 GiB
Date: Sat Mar  7 02:19:50 2026
