
  ___ ___ ___ _ _ _  
 |   |   |_  | | | | 
 | | | | | . | | | | 
 |__ |  _|___|_____|  25.7.0
 |___|_|             

User:   mikei@Z790-AORUS-ELITE-AX
Date:   Tue Feb 24 20:15:40 2026
Arch:   x86_64
Pid:    89048
CWD:    /home/mikei/Dokumenty/code/cemea/ocx
Python: 3.10.16
gpaw:   /home/mikei/.pyenv/versions/cemea-env/lib/python3.10/site-packages/gpaw
_gpaw:  /home/mikei/.pyenv/versions/cemea-env/lib/python3.10/site-packages/
        _gpaw.cpython-310-x86_64-linux-gnu.so
ase:    /home/mikei/.pyenv/versions/cemea-env/lib/python3.10/site-packages/ase (version 3.27.0)
numpy:  /home/mikei/.pyenv/versions/cemea-env/lib/python3.10/site-packages/numpy (version 2.2.6)
scipy:  /home/mikei/.pyenv/versions/cemea-env/lib/python3.10/site-packages/scipy (version 1.15.3)
libxc:  2.x.y
units:  Angstrom and eV
cores: 1
OpenMP: False
OMP_NUM_THREADS: 1

Input parameters:
  basis: dzp
  convergence: {density: 0.0001,
                eigenstates: 1e-05,
                energy: 1e-05}
  kpts: [4 4 1]
  mode: lcao

System changes: positions, numbers, cell, pbc, initial_charges, initial_magmoms 

Initialize ...

species:
  Ni:
    name: Nickel
    id: 1802175e8de9ea26d9f4394ec1a7d564
    Z: 28.0
    valence: 16
    core: 12
    charge: 0.0
    file: /home/mikei/.pyenv/versions/cemea-env/lib/python3.10/site-packages/gpaw_data/setups/Ni.LDA.gz
    compensation charges: {type: gauss,
                           rc: 0.36,
                           lmax: 2}
    cutoffs: {filter: 2.14,
              core: 1.98}
    projectors:
      #              energy  rcut
      - 4s(2.00)    -5.858   1.164
      - 3p(6.00)   -71.266   1.207
      - 4p(0.00)    -1.338   1.207
      - 3d(8.00)    -9.141   1.138
      -  s          21.353   1.164
      -  d          18.071   1.138
  
    # LCAO basis set for Ni:
    #   Name: dzp
    #   File: /home/mikei/.pyenv/versions/cemea-env/lib/python3.10/site-packages/gpaw_data/setups/Ni.dzp.basis.gz
    #   Number of radial functions: 9
    #   Number of spherical harmonics: 27
    #     l=0, rc=8.5156 Bohr: 4s-sz confined orbital
    #     l=1, rc=2.9375 Bohr: 3p-sz confined orbital
    #     l=1, rc=12.4062 Bohr: 4p-sz confined orbital
    #     l=2, rc=4.6875 Bohr: 3d-sz confined orbital
    #     l=0, rc=4.9688 Bohr: 4s-dz split-valence wave
    #     l=1, rc=2.0781 Bohr: 3p-dz split-valence wave
    #     l=1, rc=7.5469 Bohr: 4p-dz split-valence wave
    #     l=2, rc=2.9375 Bohr: 3d-dz split-valence wave
    #     l=1, rc=8.5156 Bohr: p-type Gaussian polarization
    #   Number of RI-basis functions 0

  Mo:
    name: Molybdenum
    id: ac24daaf086600a00ce6d19a74574df1
    Z: 42.0
    valence: 14
    core: 28
    charge: 0.0
    file: /home/mikei/.pyenv/versions/cemea-env/lib/python3.10/site-packages/gpaw_data/setups/Mo.LDA.gz
    compensation charges: {type: gauss,
                           rc: 0.38,
                           lmax: 2}
    cutoffs: {filter: 2.16,
              core: 1.42}
    projectors:
      #              energy  rcut
      - 4s(2.00)   -64.384   1.238
      - 5s(1.00)    -4.319   1.238
      - 4p(6.00)   -38.595   1.296
      - 5p(0.00)    -1.161   1.296
      - 4d(5.00)    -3.933   1.296
      -  d          23.278   1.296
  
    # LCAO basis set for Mo:
    #   Name: dzp
    #   File: /home/mikei/.pyenv/versions/cemea-env/lib/python3.10/site-packages/gpaw_data/setups/Mo.dzp.basis.gz
    #   Number of radial functions: 11
    #   Number of spherical harmonics: 29
    #     l=0, rc=3.5469 Bohr: 4s-sz confined orbital
    #     l=0, rc=10.0469 Bohr: 5s-sz confined orbital
    #     l=1, rc=4.0781 Bohr: 4p-sz confined orbital
    #     l=1, rc=14.0938 Bohr: 5p-sz confined orbital
    #     l=2, rc=7.2031 Bohr: 4d-sz confined orbital
    #     l=0, rc=2.1250 Bohr: 4s-dz split-valence wave
    #     l=0, rc=6.1250 Bohr: 5s-dz split-valence wave
    #     l=1, rc=2.5469 Bohr: 4p-dz split-valence wave
    #     l=1, rc=8.7656 Bohr: 5p-dz split-valence wave
    #     l=2, rc=4.2344 Bohr: 4d-dz split-valence wave
    #     l=1, rc=10.0469 Bohr: p-type Gaussian polarization
    #   Number of RI-basis functions 0

  C:
    name: Carbon
    id: d60576a1f549371a163e72552ca58787
    Z: 6.0
    valence: 4
    core: 2
    charge: 0.0
    file: /home/mikei/.pyenv/versions/cemea-env/lib/python3.10/site-packages/gpaw_data/setups/C.LDA.gz
    compensation charges: {type: gauss,
                           rc: 0.20,
                           lmax: 2}
    cutoffs: {filter: 1.14,
              core: 1.14}
    projectors:
      #              energy  rcut
      - 2s(2.00)   -13.639   0.635
      - 2p(2.00)    -5.414   0.635
      -  s          13.573   0.635
      -  p          21.797   0.635
      -  d           0.000   0.635
  
    # LCAO basis set for C:
    #   Name: dzp
    #   File: /home/mikei/.pyenv/versions/cemea-env/lib/python3.10/site-packages/gpaw_data/setups/C.dzp.basis.gz
    #   Number of radial functions: 5
    #   Number of spherical harmonics: 13
    #     l=0, rc=5.5469 Bohr: 2s-sz confined orbital
    #     l=1, rc=6.6719 Bohr: 2p-sz confined orbital
    #     l=0, rc=3.0312 Bohr: 2s-dz split-valence wave
    #     l=1, rc=3.7500 Bohr: 2p-dz split-valence wave
    #     l=2, rc=6.6719 Bohr: d-type Gaussian polarization
    #   Number of RI-basis functions 0

Reference energy: -2371055.165767  # eV

Spin-paired calculation

Convergence criteria:
 Maximum [total energy] change in last 3 cyles: 1e-05 eV / valence electron
 Maximum integral of absolute [dens]ity change: 0.0001 electrons / valence electron
 Maximum integral of absolute [eigenst]ate change: 1e-05 eV^2 / valence electron
 Maximum number of scf [iter]ations: 333
 (Square brackets indicate name in SCF output, whereas a 'c' in
 the SCF output indicates the quantity has converged.)

Symmetries present (total): 2

  ( 1  0  0)  ( 0  1  0)
  ( 0  1  0)  ( 1  0  0)
  ( 0  0  1)  ( 0  0  1)

16 k-points: 4 x 4 x 1 Monkhorst-Pack grid
6 k-points in the irreducible part of the Brillouin zone
       k-points in crystal coordinates                weights
   0:     0.12500000   -0.12500000    0.00000000          2/16
   1:     0.12500000    0.12500000    0.00000000          2/16
   2:     0.37500000   -0.37500000    0.00000000          2/16
   3:     0.37500000   -0.12500000    0.00000000          4/16
   4:     0.37500000    0.12500000    0.00000000          4/16
   5:     0.37500000    0.37500000    0.00000000          2/16

Wave functions: LCAO
  Diagonalizer: Serial LAPACK
  Atomic Correction: dense with blas
  Data-type: complex
 

Occupation numbers: Fermi-Dirac:
  width: 0.1000  # eV
 

Eigensolver
   LCAO using direct dense diagonalizer 

Densities:
  Coarse grid: 36*36*128 grid
  Fine grid: 72*72*256 grid
  Total Charge: 0.000000 

Density mixing:
  Method: separate
  Backend: pulay
  Linear mixing parameter: 0.05
  old densities: 5
  Damping of long wavelength oscillations: 50 

Hamiltonian:
  XC and Coulomb potentials evaluated on a 72*72*256 grid
  Using the LDA Exchange-Correlation functional
  Interpolation: tri-quintic (5. degree polynomial)
  Poisson solver: FastPoissonSolver using
    Stencil: 6*3+1=19 point O(h^6) finite-difference Laplacian
    FFT axes: [np.int64(0), np.int64(1), np.int64(2)]
    FST axes: []
 

Memory estimate:
  Process memory now: 4595.48 MiB
  Calculator: 888.36 MiB
    Density: 221.87 MiB
      Arrays: 32.91 MiB
      Localized functions: 176.31 MiB
      Mixer: 12.66 MiB
    Hamiltonian: 34.60 MiB
      Arrays: 21.52 MiB
      XC: 0.00 MiB
      Poisson: 0.00 MiB
      vbar: 13.08 MiB
    Wavefunctions: 631.89 MiB
      C [qnM]: 49.10 MiB
      S, T [2 x qmm]: 288.86 MiB
      P [aqMi]: 6.07 MiB
      BasisFunctions: 287.87 MiB
      Eigensolver: 0.00 MiB

Total number of cores used: 1

Number of atoms: 48
Number of atomic orbitals: 1256
Number of bands in calculation: 427
Number of valence electrons: 704
Bands to converge: occupied

... initialized

Initializing position-dependent things.

Density initialized from atomic densities
      .-----------------.  
     /|                 |  
    / |                 |  
   /  |                 |  
  /   |                 |  
 *    |                 |  
 |    |                 |  
 |    |                 |  
 |    |                 |  
 |    |                 |  
 |    |                 |  
 |    |   Mo        Mo  |  
 |    |                 |  
 |    |Mo C      Mo C   |  
 |  Mo|       Mo        |  
 |    |                 |  
 |    |C         C      |  
 Mo Ni|   NMo   Ni      |  
 | Ni | NNi   NNi   Ni  |  
 |    |                 |  
 Ni   NNi   NNi   Ni    |  
 |  NNi   NNi   NNi     |  
 | Ni | NNi   NNi   Ni  |  
 |    |                 |  
 Ni   NNi   NNi   Ni    |  
 |   Ni    Ni    Ni     |  
 |    |                 |  
 |    |                 |  
 |    |                 |  
 |    |                 |  
 |    |                 |  
 |    .-----------------.  
 |   /                 /   
 |  /                 /    
 | /                 /     
 |/                 /      
 *-----------------*       

Atomic positions and initial magnetic moments

Positions:
   0 Ni     1.244508    1.244508    8.000000    ( 0.0000,  0.0000,  0.0000)
   1 Ni     3.733524    1.244508    8.000000    ( 0.0000,  0.0000,  0.0000)
   2 Ni     6.222540    1.244508    8.000000    ( 0.0000,  0.0000,  0.0000)
   3 Ni     1.244508    3.733524    8.000000    ( 0.0000,  0.0000,  0.0000)
   4 Ni     3.733524    3.733524    8.000000    ( 0.0000,  0.0000,  0.0000)
   5 Ni     6.222540    3.733524    8.000000    ( 0.0000,  0.0000,  0.0000)
   6 Ni     1.244508    6.222540    8.000000    ( 0.0000,  0.0000,  0.0000)
   7 Ni     3.733524    6.222540    8.000000    ( 0.0000,  0.0000,  0.0000)
   8 Ni     6.222540    6.222540    8.000000    ( 0.0000,  0.0000,  0.0000)
   9 Ni     0.000000    0.000000    9.760000    ( 0.0000,  0.0000,  0.0000)
  10 Ni     2.489016    0.000000    9.760000    ( 0.0000,  0.0000,  0.0000)
  11 Ni     4.978032    0.000000    9.760000    ( 0.0000,  0.0000,  0.0000)
  12 Ni     0.000000    2.489016    9.760000    ( 0.0000,  0.0000,  0.0000)
  13 Ni     2.489016    2.489016    9.760000    ( 0.0000,  0.0000,  0.0000)
  14 Ni     4.978032    2.489016    9.760000    ( 0.0000,  0.0000,  0.0000)
  15 Ni     0.000000    4.978032    9.760000    ( 0.0000,  0.0000,  0.0000)
  16 Ni     2.489016    4.978032    9.760000    ( 0.0000,  0.0000,  0.0000)
  17 Ni     4.978032    4.978032    9.760000    ( 0.0000,  0.0000,  0.0000)
  18 Ni     1.244508    1.244508   11.520000    ( 0.0000,  0.0000,  0.0000)
  19 Ni     3.733524    1.244508   11.520000    ( 0.0000,  0.0000,  0.0000)
  20 Ni     6.222540    1.244508   11.520000    ( 0.0000,  0.0000,  0.0000)
  21 Ni     1.244508    3.733524   11.520000    ( 0.0000,  0.0000,  0.0000)
  22 Ni     3.733524    3.733524   11.520000    ( 0.0000,  0.0000,  0.0000)
  23 Ni     6.222540    3.733524   11.520000    ( 0.0000,  0.0000,  0.0000)
  24 Ni     1.244508    6.222540   11.520000    ( 0.0000,  0.0000,  0.0000)
  25 Ni     3.733524    6.222540   11.520000    ( 0.0000,  0.0000,  0.0000)
  26 Ni     6.222540    6.222540   11.520000    ( 0.0000,  0.0000,  0.0000)
  27 Ni     0.000000    0.000000   13.280000    ( 0.0000,  0.0000,  0.0000)
  28 Ni     2.489016    0.000000   13.280000    ( 0.0000,  0.0000,  0.0000)
  29 Ni     4.978032    0.000000   13.280000    ( 0.0000,  0.0000,  0.0000)
  30 Ni     0.000000    2.489016   13.280000    ( 0.0000,  0.0000,  0.0000)
  31 Ni     2.489016    2.489016   13.280000    ( 0.0000,  0.0000,  0.0000)
  32 Ni     4.978032    2.489016   13.280000    ( 0.0000,  0.0000,  0.0000)
  33 Ni     0.000000    4.978032   13.280000    ( 0.0000,  0.0000,  0.0000)
  34 Ni     2.489016    4.978032   13.280000    ( 0.0000,  0.0000,  0.0000)
  35 Ni     4.978032    4.978032   13.280000    ( 0.0000,  0.0000,  0.0000)
  36 Mo     0.000000    0.000000   15.480000    ( 0.0000,  0.0000,  0.0000)
  37 Mo     2.060000    2.060000   17.540000    ( 0.0000,  0.0000,  0.0000)
  38 C      2.060000    2.060000   15.480000    ( 0.0000,  0.0000,  0.0000)
  39 Mo     0.000000    4.120000   15.480000    ( 0.0000,  0.0000,  0.0000)
  40 Mo     2.060000    6.180000   17.540000    ( 0.0000,  0.0000,  0.0000)
  41 C      2.060000    6.180000   15.480000    ( 0.0000,  0.0000,  0.0000)
  42 Mo     4.120000    0.000000   15.480000    ( 0.0000,  0.0000,  0.0000)
  43 Mo     6.180000    2.060000   17.540000    ( 0.0000,  0.0000,  0.0000)
  44 C      6.180000    2.060000   15.480000    ( 0.0000,  0.0000,  0.0000)
  45 Mo     4.120000    4.120000   15.480000    ( 0.0000,  0.0000,  0.0000)
  46 Mo     6.180000    6.180000   17.540000    ( 0.0000,  0.0000,  0.0000)
  47 C      6.180000    6.180000   15.480000    ( 0.0000,  0.0000,  0.0000)

Unit cell:
           periodic     x           y           z      points  spacing
  1. axis:    yes    7.467048    0.000000    0.000000    36     0.2074
  2. axis:    yes    0.000000    7.467048    0.000000    36     0.2074
  3. axis:    yes    0.000000    0.000000   25.540000   128     0.1995

  Lengths:   7.467048   7.467048  25.540000
  Angles:   90.000000  90.000000  90.000000

Effective grid spacing dv^(1/3) = 0.2048

     iter     time        total  log10-change:
                         energy   eigst   dens
iter:   1 20:16:05 -1009.153701        c
iter:   2 20:17:17 -2051.997798        c -1.00
iter:   3 20:18:32  -822.742740        c -0.58
iter:   4 20:19:48  -612.876396        c -1.01
iter:   5 20:20:56  -562.372676        c -1.20
iter:   6 20:22:06  -507.910121        c -1.25
iter:   7 20:23:18  -407.280601        c -1.31
iter:   8 20:24:31  -617.682856        c -1.52
iter:   9 20:25:42  -454.597403        c -1.02
iter:  10 20:26:49  -406.798958        c -1.42
iter:  11 20:28:02  -441.343134        c -1.61
iter:  12 20:29:21  -412.278375        c -1.48
iter:  13 20:30:35  -399.539205        c -1.61
iter:  14 20:32:08  -402.981411        c -1.67
iter:  15 20:33:18  -398.972310        c -1.40
iter:  16 20:34:35  -390.278967        c -1.69
iter:  17 20:35:55  -379.473930        c -1.59
iter:  18 20:37:12  -376.649402        c -1.82
iter:  19 20:38:31  -383.441023        c -1.96
iter:  20 20:39:48  -380.271167        c -1.79
iter:  21 20:41:00  -378.480730        c -2.03
iter:  22 20:42:13  -376.375871        c -1.95
iter:  23 20:43:25  -382.462086        c -2.19
iter:  24 20:44:41  -377.000116        c -1.91
iter:  25 20:46:00  -378.780912        c -2.01
iter:  26 20:47:26  -380.431700        c -2.04
iter:  27 20:48:43  -375.870760        c -2.00
iter:  28 20:49:55  -374.540701        c -2.11
iter:  29 20:51:07  -375.119432        c -2.41
iter:  30 20:52:15  -374.247710        c -2.24
iter:  31 20:53:24  -374.549453        c -2.53
iter:  32 20:54:38  -374.229695        c -2.52
iter:  33 20:55:51  -375.022926        c -2.63
iter:  34 20:57:06  -374.155404        c -2.25
iter:  35 20:58:26  -374.450320        c -2.72
iter:  36 20:59:38  -374.149480        c -2.56
iter:  37 21:00:55  -374.090311        c -2.97
iter:  38 21:02:14  -374.124705        c -2.93
iter:  39 21:03:30  -374.105324        c -2.88
iter:  40 21:04:43  -374.101124        c -3.06
iter:  41 21:05:55  -374.120570        c -3.24
iter:  42 21:07:10  -374.084295        c -3.10
iter:  43 21:08:28  -374.104385        c -3.12
iter:  44 21:09:49  -374.102396        c -3.16
iter:  45 21:11:05  -374.099531c       c -3.29
iter:  46 21:12:25  -374.089121        c -3.33
iter:  47 21:13:41  -374.090434        c -3.31
iter:  48 21:14:56  -374.091312c       c -3.15
iter:  49 21:16:11  -374.110126        c -3.40
iter:  50 21:17:30  -374.088197        c -3.27
iter:  51 21:18:41  -374.087672        c -3.35
iter:  52 21:19:53  -374.093556c       c -3.37
iter:  53 21:21:09  -374.095157        c -3.30
iter:  54 21:22:23  -374.088453c       c -3.47
iter:  55 21:23:40  -374.085385        c -3.51
iter:  56 21:24:53  -374.090721c       c -3.40
iter:  57 21:26:14  -374.091641c       c -3.54
iter:  58 21:27:30  -374.108767        c -3.43
iter:  59 21:28:44  -374.084367        c -3.27
iter:  60 21:29:56  -374.087104        c -3.41
iter:  61 21:31:08  -374.091061c       c -3.49
iter:  62 21:32:26  -374.088042c       c -3.59
iter:  63 21:33:40  -374.089350c       c -3.65
iter:  64 21:35:04  -374.084601c       c -3.68
iter:  65 21:36:23  -374.088214c       c -3.35
iter:  66 21:37:38  -374.091190c       c -3.51
iter:  67 21:38:48  -374.087965c       c -3.66
iter:  68 21:40:01  -374.086021c       c -3.56
iter:  69 21:41:17  -374.083692c       c -3.70
iter:  70 21:42:34  -374.089724c       c -3.58
iter:  71 21:43:50  -374.087968c       c -3.75
iter:  72 21:45:06  -374.085290c       c -3.83
iter:  73 21:46:20  -374.085856c       c -3.71
iter:  74 21:47:30  -374.086977c       c -3.63
iter:  75 21:48:38  -374.089199c       c -3.84
iter:  76 21:49:47  -374.085776c       c -3.81
iter:  77 21:50:58  -374.083677c       c -3.67
iter:  78 21:52:21  -374.085952c       c -3.66
iter:  79 21:53:29  -374.086552c       c -3.84
iter:  80 21:54:50  -374.085500c       c -3.92
iter:  81 21:56:06  -374.084974c       c -3.86
iter:  82 21:57:21  -374.086140c       c -3.84
iter:  83 21:58:37  -374.089925c       c -3.58
iter:  84 21:59:53  -374.087206c       c -3.84
iter:  85 22:01:10  -374.084899c       c -3.93
iter:  86 22:02:23  -374.086646c       c -3.87
iter:  87 22:03:45  -374.086398c       c -4.00
iter:  88 22:04:55  -374.088022c       c -3.99
iter:  89 22:06:06  -374.084373c       c -3.99
iter:  90 22:07:18  -374.084811c       c -3.87
iter:  91 22:08:32  -374.085895c       c -3.82
iter:  92 22:09:49  -374.085159c       c -3.91
iter:  93 22:11:04  -374.086018c       c -3.95
iter:  94 22:12:25  -374.083466c       c -4.03c

Converged after 94 iterations.

Dipole moment: (-7.684430, -7.684430, 0.916214) |e|*Ang

Energy contributions relative to reference atoms: (reference = -2371055.165767)

Kinetic:        +17.020761
Potential:       -6.995538
External:        +0.000000
XC:            -381.042998
Entropy (-ST):   -3.788540
Local:           -1.171420
SIC:             +0.000000
--------------------------
Free energy:   -375.977736
Extrapolated:  -374.083466

Showing only first 2 kpts
 Kpt  Band  Eigenvalues  Occupancy
  0   350      0.72148    1.31002
  0   351      0.73133    1.26485
  0   352      0.75071    1.17267
  0   353      0.75927    1.13089

  1   350      0.71881    1.32203
  1   351      0.73049    1.26874
  1   352      0.74365    1.20671
  1   353      0.75359    1.15867


Fermi level: 0.78560

No gap
No difference between direct/indirect transitions
Timing:                              incl.     excl.
-----------------------------------------------------------
Basic WFS set positions:             0.001     0.001   0.0% |
Basis functions set positions:       0.177     0.177   0.0% |
LCAO WFS Initialize:                 0.391     0.086   0.0% |
 Hamiltonian:                        0.305     0.000   0.0% |
  Atomic:                            0.155     0.002   0.0% |
   XC Correction:                    0.153     0.153   0.0% |
  Calculate atomic Hamiltonians:     0.025     0.025   0.0% |
  Communicate:                       0.000     0.000   0.0% |
  Hartree integrate/restrict:        0.006     0.006   0.0% |
  Initialize Hamiltonian:            0.001     0.001   0.0% |
  Poisson:                           0.072     0.005   0.0% |
   Communicate from 1D:              0.006     0.006   0.0% |
   Communicate from 2D:              0.006     0.006   0.0% |
   Communicate to 1D:                0.008     0.008   0.0% |
   Communicate to 2D:                0.008     0.008   0.0% |
   FFT 1D:                           0.009     0.009   0.0% |
   FFT 2D:                           0.030     0.030   0.0% |
  XC 3D grid:                        0.045     0.045   0.0% |
  vbar:                              0.001     0.001   0.0% |
P tci:                               3.778     3.778   0.1% |
SCF-cycle:                        6995.027     0.234   0.0% |
 Density:                         5044.589     0.002   0.0% |
  Atomic density matrices:           1.352     1.352   0.0% |
  Mix:                              11.571    11.571   0.2% |
  Multipole moments:                 0.026     0.026   0.0% |
  Normalize:                         0.011     0.011   0.0% |
  Pseudo density:                 5031.628     0.033   0.0% |
   Calculate density matrix:        11.351    11.351   0.2% |
   Construct density:             5019.885  5019.885  71.7% |----------------------------|
   Symmetrize density:               0.359     0.359   0.0% |
 Hamiltonian:                       31.532     0.004   0.0% |
  Atomic:                           14.538     0.162   0.0% |
   XC Correction:                   14.376    14.376   0.2% |
  Calculate atomic Hamiltonians:     2.342     2.342   0.0% |
  Communicate:                       0.000     0.000   0.0% |
  Hartree integrate/restrict:        0.611     0.611   0.0% |
  Poisson:                           6.833     0.585   0.0% |
   Communicate from 1D:              0.769     0.769   0.0% |
   Communicate from 2D:              0.587     0.587   0.0% |
   Communicate to 1D:                0.660     0.660   0.0% |
   Communicate to 2D:                0.727     0.727   0.0% |
   FFT 1D:                           0.754     0.754   0.0% |
   FFT 2D:                           2.750     2.750   0.0% |
  XC 3D grid:                        6.022     6.022   0.1% |
  vbar:                              1.181     1.181   0.0% |
 LCAO eigensolver:                1918.672     2.063   0.0% |
  Calculate projections:            73.988    73.988   1.1% |
  DenseAtomicCorrection:           254.138   254.138   3.6% ||
  Distribute overlap matrix:         4.388     4.388   0.1% |
  Orbital Layouts:                 519.432   519.432   7.4% |--|
  Potential matrix:               1028.344  1028.344  14.7% |-----|
  Sum over cells:                   36.319    36.319   0.5% |
ST tci:                              1.835     1.835   0.0% |
Set symmetry:                        0.000     0.000   0.0% |
TCI: Evaluate splines:               0.310     0.310   0.0% |
mktci:                               0.024     0.024   0.0% |
Other:                               3.085     3.085   0.0% |
-----------------------------------------------------------
Total:                                      7004.628 100.0%

Memory usage: 4.49 GiB
Date: Tue Feb 24 22:12:25 2026
