
  ___ ___ ___ _ _ _  
 |   |   |_  | | | | 
 | | | | | . | | | | 
 |__ |  _|___|_____|  25.7.0
 |___|_|             

User:   ubuntu@third-test
Date:   Wed Feb  4 10:44:33 2026
Arch:   x86_64
Pid:    3377469
CWD:    /mnt/vdd1/work/cemea/fairchem/src/fairchem/applications/ocx
Python: 3.10.16
gpaw:   /home/ubuntu/.pyenv/versions/cemea-env/lib/python3.10/site-packages/gpaw
_gpaw:  /home/ubuntu/.pyenv/versions/cemea-env/lib/python3.10/site-packages/
        _gpaw.cpython-310-x86_64-linux-gnu.so
ase:    /home/ubuntu/.pyenv/versions/cemea-env/lib/python3.10/site-packages/ase (version 3.27.0)
numpy:  /home/ubuntu/.pyenv/versions/cemea-env/lib/python3.10/site-packages/numpy (version 2.2.6)
scipy:  /home/ubuntu/.pyenv/versions/cemea-env/lib/python3.10/site-packages/scipy (version 1.15.3)
libxc:  2.x.y
units:  Angstrom and eV
cores: 1
OpenMP: False
OMP_NUM_THREADS: 1

Input parameters:
  basis: dzp
  convergence: {density: 0.0001,
                eigenstates: 1e-05,
                energy: 1e-05}
  kpts: [4 4 1]
  mode: lcao

System changes: positions, numbers, cell, pbc, initial_charges, initial_magmoms 

Initialize ...

species:
  Mo:
    name: Molybdenum
    id: ac24daaf086600a00ce6d19a74574df1
    Z: 42.0
    valence: 14
    core: 28
    charge: 0.0
    file: /home/ubuntu/.pyenv/versions/cemea-env/lib/python3.10/site-packages/gpaw_data/setups/Mo.LDA.gz
    compensation charges: {type: gauss,
                           rc: 0.38,
                           lmax: 2}
    cutoffs: {filter: 2.16,
              core: 1.42}
    projectors:
      #              energy  rcut
      - 4s(2.00)   -64.384   1.238
      - 5s(1.00)    -4.319   1.238
      - 4p(6.00)   -38.595   1.296
      - 5p(0.00)    -1.161   1.296
      - 4d(5.00)    -3.933   1.296
      -  d          23.278   1.296
  
    # LCAO basis set for Mo:
    #   Name: dzp
    #   File: /home/ubuntu/.pyenv/versions/cemea-env/lib/python3.10/site-packages/gpaw_data/setups/Mo.dzp.basis.gz
    #   Number of radial functions: 11
    #   Number of spherical harmonics: 29
    #     l=0, rc=3.5469 Bohr: 4s-sz confined orbital
    #     l=0, rc=10.0469 Bohr: 5s-sz confined orbital
    #     l=1, rc=4.0781 Bohr: 4p-sz confined orbital
    #     l=1, rc=14.0938 Bohr: 5p-sz confined orbital
    #     l=2, rc=7.2031 Bohr: 4d-sz confined orbital
    #     l=0, rc=2.1250 Bohr: 4s-dz split-valence wave
    #     l=0, rc=6.1250 Bohr: 5s-dz split-valence wave
    #     l=1, rc=2.5469 Bohr: 4p-dz split-valence wave
    #     l=1, rc=8.7656 Bohr: 5p-dz split-valence wave
    #     l=2, rc=4.2344 Bohr: 4d-dz split-valence wave
    #     l=1, rc=10.0469 Bohr: p-type Gaussian polarization
    #   Number of RI-basis functions 0

  N:
    name: Nitrogen
    id: c467cdfa1b75f62c8f7a0469921b1cfb
    Z: 7.0
    valence: 5
    core: 2
    charge: 0.0
    file: /home/ubuntu/.pyenv/versions/cemea-env/lib/python3.10/site-packages/gpaw_data/setups/N.LDA.gz
    compensation charges: {type: gauss,
                           rc: 0.18,
                           lmax: 2}
    cutoffs: {filter: 1.11,
              core: 0.96}
    projectors:
      #              energy  rcut
      - 2s(2.00)   -18.420   0.603
      - 2p(3.00)    -7.237   0.529
      -  s           8.791   0.603
      -  p          19.974   0.529
      -  d           0.000   0.577
  
    # LCAO basis set for N:
    #   Name: dzp
    #   File: /home/ubuntu/.pyenv/versions/cemea-env/lib/python3.10/site-packages/gpaw_data/setups/N.dzp.basis.gz
    #   Number of radial functions: 5
    #   Number of spherical harmonics: 13
    #     l=0, rc=4.8594 Bohr: 2s-sz confined orbital
    #     l=1, rc=6.0625 Bohr: 2p-sz confined orbital
    #     l=0, rc=2.6094 Bohr: 2s-dz split-valence wave
    #     l=1, rc=3.2656 Bohr: 2p-dz split-valence wave
    #     l=2, rc=6.0625 Bohr: d-type Gaussian polarization
    #   Number of RI-basis functions 0

  H:
    name: Hydrogen
    id: 4766778ce56282eaa64abeb28b7c1de3
    Z: 1.0
    valence: 1
    core: 0
    charge: 0.0
    file: /home/ubuntu/.pyenv/versions/cemea-env/lib/python3.10/site-packages/gpaw_data/setups/H.LDA.gz
    compensation charges: {type: gauss,
                           rc: 0.15,
                           lmax: 2}
    cutoffs: {filter: 0.85,
              core: 0.53}
    projectors:
      #              energy  rcut
      - 1s(1.00)    -6.353   0.476
      -  s          20.858   0.476
      -  p           0.000   0.476
  
    # LCAO basis set for H:
    #   Name: dzp
    #   File: /home/ubuntu/.pyenv/versions/cemea-env/lib/python3.10/site-packages/gpaw_data/setups/H.dzp.basis.gz
    #   Number of radial functions: 3
    #   Number of spherical harmonics: 5
    #     l=0, rc=6.4219 Bohr: 1s-sz confined orbital
    #     l=0, rc=3.6094 Bohr: 1s-dz split-valence wave
    #     l=1, rc=6.4219 Bohr: p-type Gaussian polarization
    #   Number of RI-basis functions 0

Reference energy: -886054.131033  # eV

Spin-paired calculation

Convergence criteria:
 Maximum [total energy] change in last 3 cyles: 1e-05 eV / valence electron
 Maximum integral of absolute [dens]ity change: 0.0001 electrons / valence electron
 Maximum integral of absolute [eigenst]ate change: 1e-05 eV^2 / valence electron
 Maximum number of scf [iter]ations: 333
 (Square brackets indicate name in SCF output, whereas a 'c' in
 the SCF output indicates the quantity has converged.)

Symmetries present (total): 2

  ( 1  0  0)  ( 0  1  0)
  ( 0  1  0)  ( 1  0  0)
  ( 0  0  1)  ( 0  0  1)

16 k-points: 4 x 4 x 1 Monkhorst-Pack grid
6 k-points in the irreducible part of the Brillouin zone
       k-points in crystal coordinates                weights
   0:     0.12500000   -0.12500000    0.00000000          2/16
   1:     0.12500000    0.12500000    0.00000000          2/16
   2:     0.37500000   -0.37500000    0.00000000          2/16
   3:     0.37500000   -0.12500000    0.00000000          4/16
   4:     0.37500000    0.12500000    0.00000000          4/16
   5:     0.37500000    0.37500000    0.00000000          2/16

Wave functions: LCAO
  Diagonalizer: Serial LAPACK
  Atomic Correction: dense with blas
  Data-type: complex
 

Occupation numbers: Fermi-Dirac:
  width: 0.1000  # eV
 

Eigensolver
   LCAO using direct dense diagonalizer 

Densities:
  Coarse grid: 40*40*92 grid
  Fine grid: 80*80*184 grid
  Total Charge: 0.000000 

Density mixing:
  Method: separate
  Backend: pulay
  Linear mixing parameter: 0.05
  old densities: 5
  Damping of long wavelength oscillations: 50 

Hamiltonian:
  XC and Coulomb potentials evaluated on a 80*80*184 grid
  Using the LDA Exchange-Correlation functional
  Interpolation: tri-quintic (5. degree polynomial)
  Poisson solver: FastPoissonSolver using
    Stencil: 6*3+1=19 point O(h^6) finite-difference Laplacian
    FFT axes: [np.int64(0), np.int64(1), np.int64(2)]
    FST axes: []
 

Memory estimate:
  Process memory now: 1261.20 MiB
  Calculator: 201.98 MiB
    Density: 80.41 MiB
      Arrays: 29.20 MiB
      Localized functions: 39.98 MiB
      Mixer: 11.23 MiB
    Hamiltonian: 21.69 MiB
      Arrays: 19.09 MiB
      XC: 0.00 MiB
      Poisson: 0.00 MiB
      vbar: 2.60 MiB
    Wavefunctions: 99.88 MiB
      C [qnM]: 2.22 MiB
      S, T [2 x qmm]: 15.29 MiB
      P [aqMi]: 0.33 MiB
      BasisFunctions: 82.03 MiB
      Eigensolver: 0.00 MiB

Total number of cores used: 1

Number of atoms: 13
Number of atomic orbitals: 289
Number of bands in calculation: 84
Number of valence electrons: 133
Bands to converge: occupied

... initialized

Initializing position-dependent things.

Density initialized from atomic densities
      .-------------------.  
     /|                   |  
    / |                   |  
   /  |                   |  
  /   |                   |  
 *    |                   |  
 |    |                   |  
 |    |                   |  
 |    |                   |  
 |    |                   |  
 |    |                   |  
 |    |   MH        Mo    |  
 |    |                   |  
 |    |Mo        Mo       |  
 |    |   N         N     |  
 |  Mo|       Mo          |  
 |    |N         N        |  
 Mo   |    Mo             |  
 |    |                   |  
 |    |                   |  
 |    |                   |  
 |    |                   |  
 |    .-------------------.  
 |   /                   /   
 |  /                   /    
 | /                   /     
 |/                   /      
 *-------------------*       

Atomic positions and initial magnetic moments

Positions:
   0 Mo     0.000000    0.000000    8.000000    ( 0.0000,  0.0000,  0.0000)
   1 Mo     2.080000    2.080000   10.080000    ( 0.0000,  0.0000,  0.0000)
   2 N      2.080000    2.080000    8.000000    ( 0.0000,  0.0000,  0.0000)
   3 Mo     0.000000    4.160000    8.000000    ( 0.0000,  0.0000,  0.0000)
   4 Mo     2.080000    6.240000   10.080000    ( 0.0000,  0.0000,  0.0000)
   5 N      2.080000    6.240000    8.000000    ( 0.0000,  0.0000,  0.0000)
   6 Mo     4.160000    0.000000    8.000000    ( 0.0000,  0.0000,  0.0000)
   7 Mo     6.240000    2.080000   10.080000    ( 0.0000,  0.0000,  0.0000)
   8 N      6.240000    2.080000    8.000000    ( 0.0000,  0.0000,  0.0000)
   9 Mo     4.160000    4.160000    8.000000    ( 0.0000,  0.0000,  0.0000)
  10 Mo     6.240000    6.240000   10.080000    ( 0.0000,  0.0000,  0.0000)
  11 N      6.240000    6.240000    8.000000    ( 0.0000,  0.0000,  0.0000)
  12 H      3.466667    3.466667   11.580000    ( 0.0000,  0.0000,  0.0000)

Unit cell:
           periodic     x           y           z      points  spacing
  1. axis:    yes    8.320000    0.000000    0.000000    40     0.2080
  2. axis:    yes    0.000000    8.320000    0.000000    40     0.2080
  3. axis:    yes    0.000000    0.000000   18.080000    92     0.1965

  Lengths:   8.320000   8.320000  18.080000
  Angles:   90.000000  90.000000  90.000000

Effective grid spacing dv^(1/3) = 0.2041

     iter     time        total  log10-change:
                         energy   eigst   dens
iter:   1 10:44:40   -95.372011        c
iter:   2 10:44:53   -89.818292        c -0.88
iter:   3 10:45:07   -87.153507        c -0.98
iter:   4 10:45:21   -82.113744        c -0.99
iter:   5 10:45:35   -81.282657        c -1.18
iter:   6 10:45:49   -79.651920        c -1.24
iter:   7 10:46:03   -79.339357        c -1.43
iter:   8 10:46:17   -79.074134        c -1.56
iter:   9 10:46:32   -79.020269        c -1.71
iter:  10 10:46:46   -79.026560        c -1.78
iter:  11 10:47:01   -78.938932        c -1.79
iter:  12 10:47:16   -78.921122        c -2.00
iter:  13 10:47:30   -78.901906        c -2.05
iter:  14 10:47:44   -78.889476        c -2.08
iter:  15 10:47:59   -78.872425        c -2.13
iter:  16 10:48:13   -78.865842        c -2.21
iter:  17 10:48:28   -78.857109        c -2.24
iter:  18 10:48:42   -78.853961        c -2.37
iter:  19 10:48:56   -78.854212        c -2.57
iter:  20 10:49:11   -78.853955c       c -2.66
iter:  21 10:49:25   -78.852652        c -2.73
iter:  22 10:49:40   -78.853026c       c -2.83
iter:  23 10:49:54   -78.852070c       c -2.90
iter:  24 10:50:08   -78.851924c       c -2.94
iter:  25 10:50:22   -78.851409c       c -2.99
iter:  26 10:50:36   -78.851071c       c -3.07
iter:  27 10:50:51   -78.850665c       c -3.12
iter:  28 10:51:06   -78.850202c       c -3.23
iter:  29 10:51:20   -78.850170c       c -3.30
iter:  30 10:51:33   -78.849982c       c -3.23
iter:  31 10:51:47   -78.849871c       c -3.43
iter:  32 10:52:00   -78.849860c       c -3.49
iter:  33 10:52:14   -78.849898c       c -3.51
iter:  34 10:52:28   -78.849952c       c -3.63
iter:  35 10:52:42   -78.849987c       c -3.71
iter:  36 10:52:56   -78.850032c       c -3.67
iter:  37 10:53:11   -78.850076c       c -3.87
iter:  38 10:53:25   -78.850109c       c -3.99
iter:  39 10:53:40   -78.850145c       c -4.00c

Converged after 39 iterations.

Dipole moment: (-5.542004, -5.542004, 0.148086) |e|*Ang

Energy contributions relative to reference atoms: (reference = -886054.131033)

Kinetic:       -203.717775
Potential:     +135.999239
External:        +0.000000
XC:             -12.512251
Entropy (-ST):   -1.364007
Local:           +2.062644
SIC:             +0.000000
--------------------------
Free energy:    -79.532149
Extrapolated:   -78.850145

Showing only first 2 kpts
 Kpt  Band  Eigenvalues  Occupancy
  0    64     -2.18579    1.40172
  0    65     -2.10231    1.00828
  0    66     -2.04653    0.73584
  0    67     -2.02100    0.62154

  1    64     -2.17348    1.34885
  1    65     -2.10788    1.03616
  1    66     -2.04852    0.74509
  1    67     -2.01898    0.61293


Fermi level: -2.10065

No gap
No difference between direct/indirect transitions
Timing:                              incl.     excl.
-----------------------------------------------------------
Basic WFS set positions:             0.000     0.000   0.0% |
Basis functions set positions:       0.114     0.114   0.0% |
LCAO WFS Initialize:                 0.442     0.115   0.0% |
 Hamiltonian:                        0.326     0.000   0.0% |
  Atomic:                            0.081     0.001   0.0% |
   XC Correction:                    0.080     0.080   0.0% |
  Calculate atomic Hamiltonians:     0.008     0.008   0.0% |
  Communicate:                       0.000     0.000   0.0% |
  Hartree integrate/restrict:        0.011     0.011   0.0% |
  Initialize Hamiltonian:            0.000     0.000   0.0% |
  Poisson:                           0.162     0.009   0.0% |
   Communicate from 1D:              0.022     0.022   0.0% |
   Communicate from 2D:              0.021     0.021   0.0% |
   Communicate to 1D:                0.023     0.023   0.0% |
   Communicate to 2D:                0.030     0.030   0.0% |
   FFT 1D:                           0.021     0.021   0.0% |
   FFT 2D:                           0.037     0.037   0.0% |
  XC 3D grid:                        0.059     0.059   0.0% |
  vbar:                              0.004     0.004   0.0% |
P tci:                               0.529     0.529   0.1% |
SCF-cycle:                         544.177     0.070   0.0% |
 Density:                          374.988     0.001   0.0% |
  Atomic density matrices:           0.134     0.134   0.0% |
  Mix:                               8.090     8.090   1.5% ||
  Multipole moments:                 0.010     0.010   0.0% |
  Normalize:                         0.003     0.003   0.0% |
  Pseudo density:                  366.750     0.032   0.0% |
   Calculate density matrix:         2.746     2.746   0.5% |
   Construct density:              363.815   363.815  66.5% |--------------------------|
   Symmetrize density:               0.156     0.156   0.0% |
 Hamiltonian:                       12.137     0.004   0.0% |
  Atomic:                            3.067     0.044   0.0% |
   XC Correction:                    3.023     3.023   0.6% |
  Calculate atomic Hamiltonians:     0.320     0.320   0.1% |
  Communicate:                       0.000     0.000   0.0% |
  Hartree integrate/restrict:        0.563     0.563   0.1% |
  Poisson:                           5.402     0.257   0.0% |
   Communicate from 1D:              0.796     0.796   0.1% |
   Communicate from 2D:              0.733     0.733   0.1% |
   Communicate to 1D:                0.644     0.644   0.1% |
   Communicate to 2D:                0.906     0.906   0.2% |
   FFT 1D:                           0.728     0.728   0.1% |
   FFT 2D:                           1.338     1.338   0.2% |
  XC 3D grid:                        2.480     2.480   0.5% |
  vbar:                              0.301     0.301   0.1% |
 LCAO eigensolver:                 156.981     0.055   0.0% |
  Calculate projections:             3.117     3.117   0.6% |
  DenseAtomicCorrection:            22.413    22.413   4.1% |-|
  Distribute overlap matrix:         0.043     0.043   0.0% |
  Orbital Layouts:                  39.065    39.065   7.1% |--|
  Potential matrix:                 88.972    88.972  16.3% |------|
  Sum over cells:                    3.317     3.317   0.6% |
ST tci:                              0.330     0.330   0.1% |
Set symmetry:                        0.001     0.001   0.0% |
TCI: Evaluate splines:               0.355     0.355   0.1% |
mktci:                               0.008     0.008   0.0% |
Other:                               1.016     1.016   0.2% |
-----------------------------------------------------------
Total:                                       546.971 100.0%

Memory usage: 1.23 GiB
Date: Wed Feb  4 10:53:40 2026
