
  ___ ___ ___ _ _ _  
 |   |   |_  | | | | 
 | | | | | . | | | | 
 |__ |  _|___|_____|  25.7.0
 |___|_|             

User:   ubuntu@third-test
Date:   Thu Feb 12 17:45:37 2026
Arch:   x86_64
Pid:    1539777
CWD:    /mnt/vdd1/work/cemea/fairchem/src/fairchem/applications/ocx/mo_h_adsorption_workflow
Python: 3.10.16
gpaw:   /home/ubuntu/.pyenv/versions/cemea-env/lib/python3.10/site-packages/gpaw
_gpaw:  /home/ubuntu/.pyenv/versions/cemea-env/lib/python3.10/site-packages/
        _gpaw.cpython-310-x86_64-linux-gnu.so
ase:    /home/ubuntu/.pyenv/versions/cemea-env/lib/python3.10/site-packages/ase (version 3.27.0)
numpy:  /home/ubuntu/.pyenv/versions/cemea-env/lib/python3.10/site-packages/numpy (version 2.2.6)
scipy:  /home/ubuntu/.pyenv/versions/cemea-env/lib/python3.10/site-packages/scipy (version 1.15.3)
libxc:  2.x.y
units:  Angstrom and eV
cores: 1
OpenMP: False
OMP_NUM_THREADS: 1

Input parameters:
  basis: dzp
  convergence: {density: 0.0001,
                eigenstates: 1e-05,
                energy: 1e-05}
  kpts: [4 4 1]
  mode: lcao

System changes: positions, numbers, cell, pbc, initial_charges, initial_magmoms 

Initialize ...

species:
  Mo:
    name: Molybdenum
    id: ac24daaf086600a00ce6d19a74574df1
    Z: 42.0
    valence: 14
    core: 28
    charge: 0.0
    file: /home/ubuntu/.pyenv/versions/cemea-env/lib/python3.10/site-packages/gpaw_data/setups/Mo.LDA.gz
    compensation charges: {type: gauss,
                           rc: 0.38,
                           lmax: 2}
    cutoffs: {filter: 2.16,
              core: 1.42}
    projectors:
      #              energy  rcut
      - 4s(2.00)   -64.384   1.238
      - 5s(1.00)    -4.319   1.238
      - 4p(6.00)   -38.595   1.296
      - 5p(0.00)    -1.161   1.296
      - 4d(5.00)    -3.933   1.296
      -  d          23.278   1.296
  
    # LCAO basis set for Mo:
    #   Name: dzp
    #   File: /home/ubuntu/.pyenv/versions/cemea-env/lib/python3.10/site-packages/gpaw_data/setups/Mo.dzp.basis.gz
    #   Number of radial functions: 11
    #   Number of spherical harmonics: 29
    #     l=0, rc=3.5469 Bohr: 4s-sz confined orbital
    #     l=0, rc=10.0469 Bohr: 5s-sz confined orbital
    #     l=1, rc=4.0781 Bohr: 4p-sz confined orbital
    #     l=1, rc=14.0938 Bohr: 5p-sz confined orbital
    #     l=2, rc=7.2031 Bohr: 4d-sz confined orbital
    #     l=0, rc=2.1250 Bohr: 4s-dz split-valence wave
    #     l=0, rc=6.1250 Bohr: 5s-dz split-valence wave
    #     l=1, rc=2.5469 Bohr: 4p-dz split-valence wave
    #     l=1, rc=8.7656 Bohr: 5p-dz split-valence wave
    #     l=2, rc=4.2344 Bohr: 4d-dz split-valence wave
    #     l=1, rc=10.0469 Bohr: p-type Gaussian polarization
    #   Number of RI-basis functions 0

  Se:
    name: Selenium
    id: 32bc71fdf0f79e2eec071fc2341e94af
    Z: 34.0
    valence: 6
    core: 28
    charge: 0.0
    file: /home/ubuntu/.pyenv/versions/cemea-env/lib/python3.10/site-packages/gpaw_data/setups/Se.LDA.gz
    compensation charges: {type: gauss,
                           rc: 0.27,
                           lmax: 2}
    cutoffs: {filter: 1.77,
              core: 2.67}
    projectors:
      #              energy  rcut
      - 4s(2.00)   -17.472   0.847
      - 4p(4.00)    -6.656   1.005
      -  s           9.739   0.847
      -  p          20.555   1.005
      -  d           0.000   0.847
  
    # LCAO basis set for Se:
    #   Name: dzp
    #   File: /home/ubuntu/.pyenv/versions/cemea-env/lib/python3.10/site-packages/gpaw_data/setups/Se.dzp.basis.gz
    #   Number of radial functions: 5
    #   Number of spherical harmonics: 13
    #     l=0, rc=5.7344 Bohr: 4s-sz confined orbital
    #     l=1, rc=7.2656 Bohr: 4p-sz confined orbital
    #     l=0, rc=3.1875 Bohr: 4s-dz split-valence wave
    #     l=1, rc=4.2188 Bohr: 4p-dz split-valence wave
    #     l=2, rc=7.2656 Bohr: d-type Gaussian polarization
    #   Number of RI-basis functions 0

Reference energy: -902199.467634  # eV

Spin-paired calculation

Convergence criteria:
 Maximum [total energy] change in last 3 cyles: 1e-05 eV / valence electron
 Maximum integral of absolute [dens]ity change: 0.0001 electrons / valence electron
 Maximum integral of absolute [eigenst]ate change: 1e-05 eV^2 / valence electron
 Maximum number of scf [iter]ations: 333
 (Square brackets indicate name in SCF output, whereas a 'c' in
 the SCF output indicates the quantity has converged.)

Symmetries present (total): 2

  ( 1  0  0)  (-1  0  0)
  ( 0  1  0)  ( 1  1  0)
  ( 0  0  1)  ( 0  0  1)
Note: your k-points are not as symmetric as your crystal!

16 k-points: 4 x 4 x 1 Monkhorst-Pack grid
8 k-points in the irreducible part of the Brillouin zone
       k-points in crystal coordinates                weights
   0:     0.12500000   -0.37500000    0.00000000          2/16
   1:     0.12500000   -0.12500000    0.00000000          2/16
   2:     0.12500000    0.12500000    0.00000000          2/16
   3:     0.12500000    0.37500000    0.00000000          2/16
   4:     0.37500000   -0.37500000    0.00000000          2/16
   5:     0.37500000   -0.12500000    0.00000000          2/16
   6:     0.37500000    0.12500000    0.00000000          2/16
   7:     0.37500000    0.37500000    0.00000000          2/16

Wave functions: LCAO
  Diagonalizer: Serial LAPACK
  Atomic Correction: dense with blas
  Data-type: complex
 

Occupation numbers: Fermi-Dirac:
  width: 0.1000  # eV
 

Eigensolver
   LCAO using direct dense diagonalizer 

Densities:
  Coarse grid: 28*28*96 grid
  Fine grid: 56*56*192 grid
  Total Charge: 0.000000 

Density mixing:
  Method: separate
  Backend: pulay
  Linear mixing parameter: 0.05
  old densities: 5
  Damping of long wavelength oscillations: 50 

Hamiltonian:
  XC and Coulomb potentials evaluated on a 56*56*192 grid
  Using the LDA Exchange-Correlation functional
  Interpolation: tri-quintic (5. degree polynomial)
  Poisson solver: FastPoissonSolver using
    Stencil: 8*3+1=25 point O(h^6) finite-difference Laplacian
    FFT axes: [np.int64(0), np.int64(1), np.int64(2)]
    FST axes: []
 

Memory estimate:
  Process memory now: 1584.81 MiB
  Calculator: 122.56 MiB
    Density: 51.78 MiB
      Arrays: 14.93 MiB
      Localized functions: 31.10 MiB
      Mixer: 5.74 MiB
    Hamiltonian: 11.89 MiB
      Arrays: 9.76 MiB
      XC: 0.00 MiB
      Poisson: 0.00 MiB
      vbar: 2.13 MiB
    Wavefunctions: 58.90 MiB
      C [qnM]: 1.59 MiB
      S, T [2 x qmm]: 10.46 MiB
      P [aqMi]: 0.26 MiB
      BasisFunctions: 46.59 MiB
      Eigensolver: 0.00 MiB

Total number of cores used: 1

Number of atoms: 11
Number of atomic orbitals: 207
Number of bands in calculation: 63
Number of valence electrons: 98
Bands to converge: occupied

... initialized

Initializing position-dependent things.

Density initialized from atomic densities
                                   
                                   
                                   
                                   
          Se      Se               
                    Se             
                                   
         Mo      Mo                
           MoSe    MoSe            
                                   
                Se      Se         
                                   
                                   
                                   
                                   

Atomic positions and initial magnetic moments

Positions:
   0 Mo     0.000000    0.000000    9.559400    ( 0.0000,  0.0000,  0.0000)
   1 Se     1.644500    0.949453    8.000000    ( 0.0000,  0.0000,  0.0000)
   2 Mo    -1.644500    2.848358    9.559400    ( 0.0000,  0.0000,  0.0000)
   3 Se    -1.644500    4.747263   11.118800    ( 0.0000,  0.0000,  0.0000)
   4 Se     0.000000    3.797810    8.000000    ( 0.0000,  0.0000,  0.0000)
   5 Mo     3.289000    0.000000    9.559400    ( 0.0000,  0.0000,  0.0000)
   6 Se     3.289000    1.898905   11.118800    ( 0.0000,  0.0000,  0.0000)
   7 Se     4.933500    0.949453    8.000000    ( 0.0000,  0.0000,  0.0000)
   8 Mo     1.644500    2.848358    9.559400    ( 0.0000,  0.0000,  0.0000)
   9 Se     1.644500    4.747263   11.118800    ( 0.0000,  0.0000,  0.0000)
  10 Se     3.289000    3.797810    8.000000    ( 0.0000,  0.0000,  0.0000)

Unit cell:
           periodic     x           y           z      points  spacing
  1. axis:    yes    6.578000    0.000000    0.000000    28     0.2035
  2. axis:    yes   -3.289000    5.696715    0.000000    28     0.2035
  3. axis:    yes    0.000000    0.000000   19.118800    96     0.1992

  Lengths:   6.578000   6.578000  19.118800
  Angles:   90.000000  90.000000 120.000000

Effective grid spacing dv^(1/3) = 0.2119

     iter     time        total  log10-change:
                         energy   eigst   dens
iter:   1 17:45:43   -80.589419        c
iter:   2 17:45:56   -79.463040        c -1.22
iter:   3 17:46:09   -77.901453        c -1.27
iter:   4 17:46:22   -77.659465        c -1.36
iter:   5 17:46:35   -77.360055        c -1.55
iter:   6 17:46:48   -77.090639        c -1.70
iter:   7 17:47:00   -77.196623        c -1.95
iter:   8 17:47:12   -77.020644        c -1.90
iter:   9 17:47:25   -77.016689        c -2.62
iter:  10 17:47:37   -77.014706        c -2.74
iter:  11 17:47:49   -77.013990        c -2.82
iter:  12 17:48:02   -77.013222        c -2.89
iter:  13 17:48:14   -77.012999        c -3.11
iter:  14 17:48:26   -77.012852c       c -3.20
iter:  15 17:48:39   -77.012565c       c -3.26
iter:  16 17:48:51   -77.012558c       c -3.42
iter:  17 17:49:04   -77.012567c       c -3.76
iter:  18 17:49:16   -77.012564c       c -3.98
iter:  19 17:49:29   -77.012565c       c -4.04c

Converged after 19 iterations.

Dipole moment: (1.223073, -2.127251, 0.019359) |e|*Ang

Energy contributions relative to reference atoms: (reference = -902199.467634)

Kinetic:       +104.142281
Potential:     -110.736142
External:        +0.000000
XC:             -71.009008
Entropy (-ST):   -0.248555
Local:           +0.714582
SIC:             +0.000000
--------------------------
Free energy:    -77.136843
Extrapolated:   -77.012565

Showing only first 2 kpts
 Kpt  Band  Eigenvalues  Occupancy
  0    47     -1.22271    1.88366
  0    48     -1.13822    1.74860
  0    49     -0.85827    0.59468
  0    50     -0.44851    0.01396

  1    47     -1.46106    1.98867
  1    48     -1.11471    1.69224
  1    49     -0.98232    1.18801
  1    50     -0.57778    0.04993


Fermi level: -0.94427

No gap
No difference between direct/indirect transitions
Timing:                              incl.     excl.
-----------------------------------------------------------
Basic WFS set positions:             0.000     0.000   0.0% |
Basis functions set positions:       0.056     0.056   0.0% |
LCAO WFS Initialize:                 0.285     0.100   0.0% |
 Hamiltonian:                        0.185     0.000   0.0% |
  Atomic:                            0.075     0.001   0.0% |
   XC Correction:                    0.074     0.074   0.0% |
  Calculate atomic Hamiltonians:     0.007     0.007   0.0% |
  Communicate:                       0.000     0.000   0.0% |
  Hartree integrate/restrict:        0.006     0.006   0.0% |
  Initialize Hamiltonian:            0.001     0.001   0.0% |
  Poisson:                           0.065     0.004   0.0% |
   Communicate from 1D:              0.009     0.009   0.0% |
   Communicate from 2D:              0.010     0.010   0.0% |
   Communicate to 1D:                0.009     0.009   0.0% |
   Communicate to 2D:                0.010     0.010   0.0% |
   FFT 1D:                           0.006     0.006   0.0% |
   FFT 2D:                           0.017     0.017   0.0% |
  XC 3D grid:                        0.029     0.029   0.0% |
  vbar:                              0.002     0.002   0.0% |
P tci:                               0.520     0.520   0.2% |
SCF-cycle:                         229.554     0.052   0.0% |
 Density:                          159.282     0.000   0.0% |
  Atomic density matrices:           0.051     0.051   0.0% |
  Mix:                               3.394     3.394   1.5% ||
  Multipole moments:                 0.004     0.004   0.0% |
  Normalize:                         0.001     0.001   0.0% |
  Pseudo density:                  155.831     0.011   0.0% |
   Calculate density matrix:         1.659     1.659   0.7% |
   Construct density:              154.124   154.124  66.5% |--------------------------|
   Symmetrize density:               0.038     0.038   0.0% |
 Hamiltonian:                        3.971     0.001   0.0% |
  Atomic:                            1.360     0.019   0.0% |
   XC Correction:                    1.341     1.341   0.6% |
  Calculate atomic Hamiltonians:     0.124     0.124   0.1% |
  Communicate:                       0.000     0.000   0.0% |
  Hartree integrate/restrict:        0.299     0.299   0.1% |
  Poisson:                           1.197     0.096   0.0% |
   Communicate from 1D:              0.159     0.159   0.1% |
   Communicate from 2D:              0.163     0.163   0.1% |
   Communicate to 1D:                0.194     0.194   0.1% |
   Communicate to 2D:                0.175     0.175   0.1% |
   FFT 1D:                           0.094     0.094   0.0% |
   FFT 2D:                           0.316     0.316   0.1% |
  XC 3D grid:                        0.754     0.754   0.3% |
  vbar:                              0.237     0.237   0.1% |
 LCAO eigensolver:                  66.248     0.025   0.0% |
  Calculate projections:             1.583     1.583   0.7% |
  DenseAtomicCorrection:             9.435     9.435   4.1% |-|
  Distribute overlap matrix:         0.017     0.017   0.0% |
  Orbital Layouts:                  23.633    23.633  10.2% |---|
  Potential matrix:                 28.530    28.530  12.3% |----|
  Sum over cells:                    3.025     3.025   1.3% ||
ST tci:                              0.280     0.280   0.1% |
Set symmetry:                        0.001     0.001   0.0% |
TCI: Evaluate splines:               0.266     0.266   0.1% |
mktci:                               0.008     0.008   0.0% |
Other:                               0.683     0.683   0.3% |
-----------------------------------------------------------
Total:                                       231.653 100.0%

Memory usage: 1.55 GiB
Date: Thu Feb 12 17:49:29 2026
