
  ___ ___ ___ _ _ _  
 |   |   |_  | | | | 
 | | | | | . | | | | 
 |__ |  _|___|_____|  25.7.0
 |___|_|             

User:   mikei@Z790-AORUS-ELITE-AX
Date:   Sun Mar  1 09:46:02 2026
Arch:   x86_64
Pid:    89048
CWD:    /home/mikei/Dokumenty/code/cemea/ocx
Python: 3.10.16
gpaw:   /home/mikei/.pyenv/versions/cemea-env/lib/python3.10/site-packages/gpaw
_gpaw:  /home/mikei/.pyenv/versions/cemea-env/lib/python3.10/site-packages/
        _gpaw.cpython-310-x86_64-linux-gnu.so
ase:    /home/mikei/.pyenv/versions/cemea-env/lib/python3.10/site-packages/ase (version 3.27.0)
numpy:  /home/mikei/.pyenv/versions/cemea-env/lib/python3.10/site-packages/numpy (version 2.2.6)
scipy:  /home/mikei/.pyenv/versions/cemea-env/lib/python3.10/site-packages/scipy (version 1.15.3)
libxc:  2.x.y
units:  Angstrom and eV
cores: 1
OpenMP: False
OMP_NUM_THREADS: 1

Input parameters:
  basis: dzp
  convergence: {density: 0.0001,
                eigenstates: 1e-05,
                energy: 1e-05}
  kpts: [4 4 1]
  mode: lcao

System changes: positions, numbers, cell, pbc, initial_charges, initial_magmoms 

Initialize ...

species:
  Ni:
    name: Nickel
    id: 1802175e8de9ea26d9f4394ec1a7d564
    Z: 28.0
    valence: 16
    core: 12
    charge: 0.0
    file: /home/mikei/.pyenv/versions/cemea-env/lib/python3.10/site-packages/gpaw_data/setups/Ni.LDA.gz
    compensation charges: {type: gauss,
                           rc: 0.36,
                           lmax: 2}
    cutoffs: {filter: 2.14,
              core: 1.98}
    projectors:
      #              energy  rcut
      - 4s(2.00)    -5.858   1.164
      - 3p(6.00)   -71.266   1.207
      - 4p(0.00)    -1.338   1.207
      - 3d(8.00)    -9.141   1.138
      -  s          21.353   1.164
      -  d          18.071   1.138
  
    # LCAO basis set for Ni:
    #   Name: dzp
    #   File: /home/mikei/.pyenv/versions/cemea-env/lib/python3.10/site-packages/gpaw_data/setups/Ni.dzp.basis.gz
    #   Number of radial functions: 9
    #   Number of spherical harmonics: 27
    #     l=0, rc=8.5156 Bohr: 4s-sz confined orbital
    #     l=1, rc=2.9375 Bohr: 3p-sz confined orbital
    #     l=1, rc=12.4062 Bohr: 4p-sz confined orbital
    #     l=2, rc=4.6875 Bohr: 3d-sz confined orbital
    #     l=0, rc=4.9688 Bohr: 4s-dz split-valence wave
    #     l=1, rc=2.0781 Bohr: 3p-dz split-valence wave
    #     l=1, rc=7.5469 Bohr: 4p-dz split-valence wave
    #     l=2, rc=2.9375 Bohr: 3d-dz split-valence wave
    #     l=1, rc=8.5156 Bohr: p-type Gaussian polarization
    #   Number of RI-basis functions 0

  Mo:
    name: Molybdenum
    id: ac24daaf086600a00ce6d19a74574df1
    Z: 42.0
    valence: 14
    core: 28
    charge: 0.0
    file: /home/mikei/.pyenv/versions/cemea-env/lib/python3.10/site-packages/gpaw_data/setups/Mo.LDA.gz
    compensation charges: {type: gauss,
                           rc: 0.38,
                           lmax: 2}
    cutoffs: {filter: 2.16,
              core: 1.42}
    projectors:
      #              energy  rcut
      - 4s(2.00)   -64.384   1.238
      - 5s(1.00)    -4.319   1.238
      - 4p(6.00)   -38.595   1.296
      - 5p(0.00)    -1.161   1.296
      - 4d(5.00)    -3.933   1.296
      -  d          23.278   1.296
  
    # LCAO basis set for Mo:
    #   Name: dzp
    #   File: /home/mikei/.pyenv/versions/cemea-env/lib/python3.10/site-packages/gpaw_data/setups/Mo.dzp.basis.gz
    #   Number of radial functions: 11
    #   Number of spherical harmonics: 29
    #     l=0, rc=3.5469 Bohr: 4s-sz confined orbital
    #     l=0, rc=10.0469 Bohr: 5s-sz confined orbital
    #     l=1, rc=4.0781 Bohr: 4p-sz confined orbital
    #     l=1, rc=14.0938 Bohr: 5p-sz confined orbital
    #     l=2, rc=7.2031 Bohr: 4d-sz confined orbital
    #     l=0, rc=2.1250 Bohr: 4s-dz split-valence wave
    #     l=0, rc=6.1250 Bohr: 5s-dz split-valence wave
    #     l=1, rc=2.5469 Bohr: 4p-dz split-valence wave
    #     l=1, rc=8.7656 Bohr: 5p-dz split-valence wave
    #     l=2, rc=4.2344 Bohr: 4d-dz split-valence wave
    #     l=1, rc=10.0469 Bohr: p-type Gaussian polarization
    #   Number of RI-basis functions 0

  B:
    name: Boron
    id: 02e2e0e88ef95f403158802f6b0f4231
    Z: 5.0
    valence: 3
    core: 2
    charge: 0.0
    file: /home/mikei/.pyenv/versions/cemea-env/lib/python3.10/site-packages/gpaw_data/setups/B.LDA.gz
    compensation charges: {type: gauss,
                           rc: 0.20,
                           lmax: 2}
    cutoffs: {filter: 1.14,
              core: 1.42}
    projectors:
      #              energy  rcut
      - 2s(2.00)    -9.383   0.635
      - 2p(1.00)    -3.714   0.635
      -  s          17.828   0.635
      -  p          23.498   0.635
      -  d           0.000   0.635
  
    # LCAO basis set for B:
    #   Name: dzp
    #   File: /home/mikei/.pyenv/versions/cemea-env/lib/python3.10/site-packages/gpaw_data/setups/B.dzp.basis.gz
    #   Number of radial functions: 5
    #   Number of spherical harmonics: 13
    #     l=0, rc=6.6719 Bohr: 2s-sz confined orbital
    #     l=1, rc=8.2188 Bohr: 2p-sz confined orbital
    #     l=0, rc=3.7500 Bohr: 2s-dz split-valence wave
    #     l=1, rc=4.6094 Bohr: 2p-dz split-valence wave
    #     l=2, rc=8.2188 Bohr: d-type Gaussian polarization
    #   Number of RI-basis functions 0

  Au:
    name: Gold
    id: a44207148b704df7bec07bf25e8feca8
    Z: 79.0
    valence: 11
    core: 68
    charge: 0.0
    file: /home/mikei/.pyenv/versions/cemea-env/lib/python3.10/site-packages/gpaw_data/setups/Au.LDA.gz
    compensation charges: {type: gauss,
                           rc: 0.42,
                           lmax: 2}
    cutoffs: {filter: 2.33,
              core: 2.81}
    projectors:
      #              energy  rcut
      - 6s(1.00)    -6.048   1.323
      - 6p(0.00)    -0.888   1.323
      - 5d(10.00)    -7.129   1.323
      -  s          21.163   1.323
      -  p          26.323   1.323
      -  d          20.082   1.323
  
    # LCAO basis set for Au:
    #   Name: dzp
    #   File: /home/mikei/.pyenv/versions/cemea-env/lib/python3.10/site-packages/gpaw_data/setups/Au.dzp.basis.gz
    #   Number of radial functions: 5
    #   Number of spherical harmonics: 15
    #     l=0, rc=8.5938 Bohr: 6s-sz confined orbital
    #     l=2, rc=5.9219 Bohr: 5d-sz confined orbital
    #     l=0, rc=4.9844 Bohr: 6s-dz split-valence wave
    #     l=2, rc=3.5156 Bohr: 5d-dz split-valence wave
    #     l=1, rc=8.5938 Bohr: p-type Gaussian polarization
    #   Number of RI-basis functions 0

Reference energy: -2962178.306473  # eV

Spin-paired calculation

Convergence criteria:
 Maximum [total energy] change in last 3 cyles: 1e-05 eV / valence electron
 Maximum integral of absolute [dens]ity change: 0.0001 electrons / valence electron
 Maximum integral of absolute [eigenst]ate change: 1e-05 eV^2 / valence electron
 Maximum number of scf [iter]ations: 333
 (Square brackets indicate name in SCF output, whereas a 'c' in
 the SCF output indicates the quantity has converged.)

Symmetries present (total): 1

  ( 1  0  0)
  ( 0  1  0)
  ( 0  0  1)

16 k-points: 4 x 4 x 1 Monkhorst-Pack grid
8 k-points in the irreducible part of the Brillouin zone
       k-points in crystal coordinates                weights
   0:     0.12500000   -0.37500000    0.00000000          2/16
   1:     0.12500000   -0.12500000    0.00000000          2/16
   2:     0.12500000    0.12500000    0.00000000          2/16
   3:     0.12500000    0.37500000    0.00000000          2/16
   4:     0.37500000   -0.37500000    0.00000000          2/16
   5:     0.37500000   -0.12500000    0.00000000          2/16
   6:     0.37500000    0.12500000    0.00000000          2/16
   7:     0.37500000    0.37500000    0.00000000          2/16

Wave functions: LCAO
  Diagonalizer: Serial LAPACK
  Atomic Correction: dense with blas
  Data-type: complex
 

Occupation numbers: Fermi-Dirac:
  width: 0.1000  # eV
 

Eigensolver
   LCAO using direct dense diagonalizer 

Densities:
  Coarse grid: 36*36*124 grid
  Fine grid: 72*72*248 grid
  Total Charge: 0.000000 

Density mixing:
  Method: separate
  Backend: pulay
  Linear mixing parameter: 0.05
  old densities: 5
  Damping of long wavelength oscillations: 50 

Hamiltonian:
  XC and Coulomb potentials evaluated on a 72*72*248 grid
  Using the LDA Exchange-Correlation functional
  Interpolation: tri-quintic (5. degree polynomial)
  Poisson solver: FastPoissonSolver using
    Stencil: 6*3+1=19 point O(h^6) finite-difference Laplacian
    FFT axes: [np.int64(0), np.int64(1), np.int64(2)]
    FST axes: []
 

Memory estimate:
  Process memory now: 4818.40 MiB
  Calculator: 899.09 MiB
    Density: 210.06 MiB
      Arrays: 31.88 MiB
      Localized functions: 165.93 MiB
      Mixer: 12.26 MiB
    Hamiltonian: 33.35 MiB
      Arrays: 20.84 MiB
      XC: 0.00 MiB
      Poisson: 0.00 MiB
      vbar: 12.50 MiB
    Wavefunctions: 655.68 MiB
      C [qnM]: 57.70 MiB
      S, T [2 x qmm]: 334.20 MiB
      P [aqMi]: 7.21 MiB
      BasisFunctions: 256.56 MiB
      Eigensolver: 0.00 MiB

Total number of cores used: 1

Number of atoms: 46
Number of atomic orbitals: 1170
Number of bands in calculation: 404
Number of valence electrons: 666
Bands to converge: occupied

... initialized

Initializing position-dependent things.

Density initialized from atomic densities
      .-----------------.  
     /|                 |  
    / |                 |  
   /  |                 |  
  /   |                 |  
 *    |                 |  
 |    |                 |  
 |    |                 |  
 |    |                 |  
 |    |                 |  
 |    |                 |  
 |    |Au    Au         |  
 |    | B      B        |  
 |    |                 |  
 |    B      B          |  
 | Mo |   Mo            |  
 |  Ni|   Ni    Ni      |  
 Mo   | Mo              |  
 | Ni | NNi   NNi   Ni  |  
 |    Ni    Ni    Ni    |  
 Ni   |Ni    Ni         |  
 |  NNi   NNi   NNi     |  
 | Ni | NNi   NNi   Ni  |  
 |    |                 |  
 Ni   NNi   NNi   Ni    |  
 |   Ni    Ni    Ni     |  
 |    |                 |  
 |    |                 |  
 |    |                 |  
 |    |                 |  
 |    |                 |  
 |    .-----------------.  
 |   /                 /   
 |  /                 /    
 | /                 /     
 |/                 /      
 *-----------------*       

Atomic positions and initial magnetic moments

Positions:
   0 Ni     1.244508    1.244508    8.000000    ( 0.0000,  0.0000,  0.0000)
   1 Ni     3.733524    1.244508    8.000000    ( 0.0000,  0.0000,  0.0000)
   2 Ni     6.222540    1.244508    8.000000    ( 0.0000,  0.0000,  0.0000)
   3 Ni     1.244508    3.733524    8.000000    ( 0.0000,  0.0000,  0.0000)
   4 Ni     3.733524    3.733524    8.000000    ( 0.0000,  0.0000,  0.0000)
   5 Ni     6.222540    3.733524    8.000000    ( 0.0000,  0.0000,  0.0000)
   6 Ni     1.244508    6.222540    8.000000    ( 0.0000,  0.0000,  0.0000)
   7 Ni     3.733524    6.222540    8.000000    ( 0.0000,  0.0000,  0.0000)
   8 Ni     6.222540    6.222540    8.000000    ( 0.0000,  0.0000,  0.0000)
   9 Ni     0.000000    0.000000    9.760000    ( 0.0000,  0.0000,  0.0000)
  10 Ni     2.489016    0.000000    9.760000    ( 0.0000,  0.0000,  0.0000)
  11 Ni     4.978032    0.000000    9.760000    ( 0.0000,  0.0000,  0.0000)
  12 Ni     0.000000    2.489016    9.760000    ( 0.0000,  0.0000,  0.0000)
  13 Ni     2.489016    2.489016    9.760000    ( 0.0000,  0.0000,  0.0000)
  14 Ni     4.978032    2.489016    9.760000    ( 0.0000,  0.0000,  0.0000)
  15 Ni     0.000000    4.978032    9.760000    ( 0.0000,  0.0000,  0.0000)
  16 Ni     2.489016    4.978032    9.760000    ( 0.0000,  0.0000,  0.0000)
  17 Ni     4.978032    4.978032    9.760000    ( 0.0000,  0.0000,  0.0000)
  18 Ni     1.244508    1.244508   11.520000    ( 0.0000,  0.0000,  0.0000)
  19 Ni     3.733524    1.244508   11.520000    ( 0.0000,  0.0000,  0.0000)
  20 Ni     6.222540    1.244508   11.520000    ( 0.0000,  0.0000,  0.0000)
  21 Ni     1.244508    3.733524   11.520000    ( 0.0000,  0.0000,  0.0000)
  22 Ni     3.733524    3.733524   11.520000    ( 0.0000,  0.0000,  0.0000)
  23 Ni     6.222540    3.733524   11.520000    ( 0.0000,  0.0000,  0.0000)
  24 Ni     1.244508    6.222540   11.520000    ( 0.0000,  0.0000,  0.0000)
  25 Ni     3.733524    6.222540   11.520000    ( 0.0000,  0.0000,  0.0000)
  26 Ni     6.222540    6.222540   11.520000    ( 0.0000,  0.0000,  0.0000)
  27 Ni     0.000000    0.000000   13.280000    ( 0.0000,  0.0000,  0.0000)
  28 Ni     2.489016    0.000000   13.280000    ( 0.0000,  0.0000,  0.0000)
  29 Ni     4.978032    0.000000   13.280000    ( 0.0000,  0.0000,  0.0000)
  30 Ni     0.000000    2.489016   13.280000    ( 0.0000,  0.0000,  0.0000)
  31 Ni     2.489016    2.489016   13.280000    ( 0.0000,  0.0000,  0.0000)
  32 Ni     4.978032    2.489016   13.280000    ( 0.0000,  0.0000,  0.0000)
  33 Ni     0.000000    4.978032   13.280000    ( 0.0000,  0.0000,  0.0000)
  34 Ni     2.489016    4.978032   13.280000    ( 0.0000,  0.0000,  0.0000)
  35 Ni     4.978032    4.978032   13.280000    ( 0.0000,  0.0000,  0.0000)
  36 Mo     0.000000    0.000000   15.480000    ( 0.0000,  0.0000,  0.0000)
  37 B      1.525000    1.525000   17.005000    ( 0.0000,  0.0000,  0.0000)
  38 Mo     0.000000    3.050000   15.480000    ( 0.0000,  0.0000,  0.0000)
  39 B      1.525000    4.575000   17.005000    ( 0.0000,  0.0000,  0.0000)
  40 Mo     3.050000    0.000000   15.480000    ( 0.0000,  0.0000,  0.0000)
  41 B      4.575000    1.525000   17.005000    ( 0.0000,  0.0000,  0.0000)
  42 Mo     3.050000    3.050000   15.480000    ( 0.0000,  0.0000,  0.0000)
  43 B      4.575000    4.575000   17.005000    ( 0.0000,  0.0000,  0.0000)
  44 Au     1.761494    2.961494   18.805000    ( 0.0000,  0.0000,  0.0000)
  45 Au     4.161494    2.961494   18.805000    ( 0.0000,  0.0000,  0.0000)

Unit cell:
           periodic     x           y           z      points  spacing
  1. axis:    yes    7.467048    0.000000    0.000000    36     0.2074
  2. axis:    yes    0.000000    7.467048    0.000000    36     0.2074
  3. axis:    yes    0.000000    0.000000   25.005000   124     0.2017

  Lengths:   7.467048   7.467048  25.005000
  Angles:   90.000000  90.000000  90.000000

Effective grid spacing dv^(1/3) = 0.2055

     iter     time        total  log10-change:
                         energy   eigst   dens
iter:   1 09:47:40  -873.315524        c
iter:   2 09:49:49 -1807.751652        c -1.02
iter:   3 09:52:00  -600.686187        c -0.58
iter:   4 09:54:24  -392.015314        c -1.12
iter:   5 09:56:12  -355.876781        c -1.48
iter:   6 09:58:02  -346.821679        c -1.56
iter:   7 10:00:00  -354.842378        c -1.52
iter:   8 10:01:52  -366.937268        c -1.49
iter:   9 10:03:45  -350.195934        c -1.58
iter:  10 10:06:13  -336.764567        c -1.71
iter:  11 10:08:25  -330.380114        c -1.80
iter:  12 10:10:29  -330.518751        c -1.84
iter:  13 10:12:19  -330.133517        c -1.82
iter:  14 10:14:06  -330.564209        c -1.93
iter:  15 10:16:10  -335.538831        c -1.97
iter:  16 10:18:12  -333.321794        c -1.84
iter:  17 10:20:49  -331.214279        c -1.91
iter:  18 10:22:46  -337.279355        c -2.07
iter:  19 10:24:52  -336.864387        c -1.81
iter:  20 10:26:48  -330.335168        c -1.87
iter:  21 10:29:03  -330.531565        c -2.08
iter:  22 10:31:50  -328.388270        c -2.19
iter:  23 10:34:00  -328.070174        c -2.40
iter:  24 10:36:09  -328.348673        c -2.56
iter:  25 10:39:02  -328.239405        c -2.41
iter:  26 10:41:19  -328.247972        c -2.50
iter:  27 10:43:16  -328.458109        c -2.63
iter:  28 10:45:04  -328.038095        c -2.49
iter:  29 10:47:32  -327.982505        c -2.79
iter:  30 10:50:09  -327.974674        c -2.97
iter:  31 10:52:04  -327.989729        c -2.78
iter:  32 10:54:03  -328.005734        c -2.88
iter:  33 10:56:16  -327.973329        c -2.76
iter:  34 10:58:12  -327.949797        c -2.99
iter:  35 10:59:57  -327.955610        c -3.14
iter:  36 11:02:08  -327.998234        c -3.00
iter:  37 11:05:08  -327.959189        c -2.97
iter:  38 11:07:59  -327.938916        c -3.12
iter:  39 11:10:30  -327.931005        c -3.26
iter:  40 11:12:21  -327.927541        c -3.28
iter:  41 11:14:40  -327.928435c       c -3.26
iter:  42 11:17:03  -327.929906c       c -3.40
iter:  43 11:19:18  -327.931669c       c -3.38
iter:  44 11:21:16  -327.927119c       c -3.21
iter:  45 11:23:24  -327.942718        c -3.43
iter:  46 11:25:29  -327.935828        c -3.20
iter:  47 11:27:59  -327.928762        c -3.38
iter:  48 11:30:38  -327.926014        c -3.40
iter:  49 11:33:42  -327.931499c       c -3.35
iter:  50 11:35:40  -327.925884c       c -3.44
iter:  51 11:37:25  -327.927797c       c -3.55
iter:  52 11:39:35  -327.925140c       c -3.57
iter:  53 11:41:57  -327.930602c       c -3.57
iter:  54 11:43:47  -327.928043c       c -3.34
iter:  55 11:45:54  -327.925586c       c -3.60
iter:  56 11:48:11  -327.928319c       c -3.55
iter:  57 11:50:18  -327.924242c       c -3.61
iter:  58 11:52:14  -327.927104c       c -3.51
iter:  59 11:54:15  -327.927349c       c -3.50
iter:  60 11:56:08  -327.925012c       c -3.68
iter:  61 11:58:32  -327.925073c       c -3.78
iter:  62 12:00:23  -327.925846c       c -3.73
iter:  63 12:02:44  -327.926934c       c -3.74
iter:  64 12:05:11  -327.927674c       c -3.77
iter:  65 12:07:44  -327.922633c       c -3.68
iter:  66 12:10:05  -327.925241c       c -3.65
iter:  67 12:12:07  -327.925317c       c -3.61
iter:  68 12:13:58  -327.924310c       c -3.91
iter:  69 12:16:19  -327.924154c       c -3.79
iter:  70 12:18:58  -327.924057c       c -3.93
iter:  71 12:20:51  -327.926769c       c -3.85
iter:  72 12:22:49  -327.927663c       c -3.72
iter:  73 12:24:46  -327.923205c       c -3.72
iter:  74 12:26:58  -327.926601c       c -3.88
iter:  75 12:29:24  -327.924131c       c -3.84
iter:  76 12:31:42  -327.924289c       c -3.93
iter:  77 12:33:40  -327.924362c       c -4.06c

Converged after 77 iterations.

Dipole moment: (-13.461504, -13.067411, 0.297403) |e|*Ang

Energy contributions relative to reference atoms: (reference = -2962178.306473)

Kinetic:        +61.756240
Potential:      -27.065501
External:        +0.000000
XC:            -359.341773
Entropy (-ST):   -3.530929
Local:           -1.507862
SIC:             +0.000000
--------------------------
Free energy:   -329.689826
Extrapolated:  -327.924362

Showing only first 2 kpts
 Kpt  Band  Eigenvalues  Occupancy
  0   331      0.06696    1.26044
  0   332      0.08047    1.19646
  0   333      0.09844    1.10873
  0   334      0.12147    0.99402

  1   331      0.05083    1.33390
  1   332      0.06716    1.25952
  1   333      0.07105    1.24128
  1   334      0.08206    1.18880


Fermi level: 0.12028

No gap
No difference between direct/indirect transitions
Timing:                              incl.     excl.
-----------------------------------------------------------
Basic WFS set positions:             0.000     0.000   0.0% |
Basis functions set positions:       0.165     0.165   0.0% |
LCAO WFS Initialize:                 0.391     0.081   0.0% |
 Hamiltonian:                        0.309     0.000   0.0% |
  Atomic:                            0.152     0.002   0.0% |
   XC Correction:                    0.150     0.150   0.0% |
  Calculate atomic Hamiltonians:     0.024     0.024   0.0% |
  Communicate:                       0.000     0.000   0.0% |
  Hartree integrate/restrict:        0.009     0.009   0.0% |
  Initialize Hamiltonian:            0.001     0.001   0.0% |
  Poisson:                           0.075     0.005   0.0% |
   Communicate from 1D:              0.007     0.007   0.0% |
   Communicate from 2D:              0.007     0.007   0.0% |
   Communicate to 1D:                0.008     0.008   0.0% |
   Communicate to 2D:                0.009     0.009   0.0% |
   FFT 1D:                           0.015     0.015   0.0% |
   FFT 2D:                           0.024     0.024   0.0% |
  XC 3D grid:                        0.044     0.044   0.0% |
  vbar:                              0.004     0.004   0.0% |
P tci:                               4.423     4.423   0.0% |
SCF-cycle:                       10047.210     0.207   0.0% |
 Density:                         4911.957     0.001   0.0% |
  Atomic density matrices:           1.296     1.296   0.0% |
  Mix:                               9.727     9.727   0.1% |
  Multipole moments:                 0.020     0.020   0.0% |
  Normalize:                         0.009     0.009   0.0% |
  Pseudo density:                 4900.904     0.033   0.0% |
   Calculate density matrix:        13.416    13.416   0.1% |
   Construct density:             4887.454  4887.454  48.6% |------------------|
   Symmetrize density:               0.001     0.001   0.0% |
 Hamiltonian:                       25.890     0.003   0.0% |
  Atomic:                           11.642     0.136   0.0% |
   XC Correction:                   11.507    11.507   0.1% |
  Calculate atomic Hamiltonians:     1.890     1.890   0.0% |
  Communicate:                       0.000     0.000   0.0% |
  Hartree integrate/restrict:        0.789     0.789   0.0% |
  Poisson:                           5.702     0.472   0.0% |
   Communicate from 1D:              0.643     0.643   0.0% |
   Communicate from 2D:              0.564     0.564   0.0% |
   Communicate to 1D:                0.520     0.520   0.0% |
   Communicate to 2D:                0.773     0.773   0.0% |
   FFT 1D:                           1.072     1.072   0.0% |
   FFT 2D:                           1.657     1.657   0.0% |
  XC 3D grid:                        4.939     4.939   0.0% |
  vbar:                              0.923     0.923   0.0% |
 LCAO eigensolver:                5109.157     1.966   0.0% |
  Calculate projections:           124.394   124.394   1.2% |
  DenseAtomicCorrection:           281.812   281.812   2.8% ||
  Distribute overlap matrix:         3.889     3.889   0.0% |
  Orbital Layouts:                3895.018  3895.018  38.7% |--------------|
  Potential matrix:                764.732   764.732   7.6% |--|
  Sum over cells:                   37.346    37.346   0.4% |
ST tci:                              1.668     1.668   0.0% |
Set symmetry:                        0.000     0.000   0.0% |
TCI: Evaluate splines:               0.485     0.485   0.0% |
mktci:                               0.023     0.023   0.0% |
Other:                               3.876     3.876   0.0% |
-----------------------------------------------------------
Total:                                     10058.242 100.0%

Memory usage: 4.71 GiB
Date: Sun Mar  1 12:33:40 2026
