
  ___ ___ ___ _ _ _  
 |   |   |_  | | | | 
 | | | | | . | | | | 
 |__ |  _|___|_____|  25.7.0
 |___|_|             

User:   ubuntu@third-test
Date:   Thu Feb 12 17:07:40 2026
Arch:   x86_64
Pid:    1539777
CWD:    /mnt/vdd1/work/cemea/fairchem/src/fairchem/applications/ocx/mo_h_adsorption_workflow
Python: 3.10.16
gpaw:   /home/ubuntu/.pyenv/versions/cemea-env/lib/python3.10/site-packages/gpaw
_gpaw:  /home/ubuntu/.pyenv/versions/cemea-env/lib/python3.10/site-packages/
        _gpaw.cpython-310-x86_64-linux-gnu.so
ase:    /home/ubuntu/.pyenv/versions/cemea-env/lib/python3.10/site-packages/ase (version 3.27.0)
numpy:  /home/ubuntu/.pyenv/versions/cemea-env/lib/python3.10/site-packages/numpy (version 2.2.6)
scipy:  /home/ubuntu/.pyenv/versions/cemea-env/lib/python3.10/site-packages/scipy (version 1.15.3)
libxc:  2.x.y
units:  Angstrom and eV
cores: 1
OpenMP: False
OMP_NUM_THREADS: 1

Input parameters:
  basis: dzp
  convergence: {density: 0.0001,
                eigenstates: 1e-05,
                energy: 1e-05}
  kpts: [4 4 1]
  mode: lcao

System changes: positions, numbers, cell, pbc, initial_charges, initial_magmoms 

Initialize ...

species:
  Mo:
    name: Molybdenum
    id: ac24daaf086600a00ce6d19a74574df1
    Z: 42.0
    valence: 14
    core: 28
    charge: 0.0
    file: /home/ubuntu/.pyenv/versions/cemea-env/lib/python3.10/site-packages/gpaw_data/setups/Mo.LDA.gz
    compensation charges: {type: gauss,
                           rc: 0.38,
                           lmax: 2}
    cutoffs: {filter: 2.16,
              core: 1.42}
    projectors:
      #              energy  rcut
      - 4s(2.00)   -64.384   1.238
      - 5s(1.00)    -4.319   1.238
      - 4p(6.00)   -38.595   1.296
      - 5p(0.00)    -1.161   1.296
      - 4d(5.00)    -3.933   1.296
      -  d          23.278   1.296
  
    # LCAO basis set for Mo:
    #   Name: dzp
    #   File: /home/ubuntu/.pyenv/versions/cemea-env/lib/python3.10/site-packages/gpaw_data/setups/Mo.dzp.basis.gz
    #   Number of radial functions: 11
    #   Number of spherical harmonics: 29
    #     l=0, rc=3.5469 Bohr: 4s-sz confined orbital
    #     l=0, rc=10.0469 Bohr: 5s-sz confined orbital
    #     l=1, rc=4.0781 Bohr: 4p-sz confined orbital
    #     l=1, rc=14.0938 Bohr: 5p-sz confined orbital
    #     l=2, rc=7.2031 Bohr: 4d-sz confined orbital
    #     l=0, rc=2.1250 Bohr: 4s-dz split-valence wave
    #     l=0, rc=6.1250 Bohr: 5s-dz split-valence wave
    #     l=1, rc=2.5469 Bohr: 4p-dz split-valence wave
    #     l=1, rc=8.7656 Bohr: 5p-dz split-valence wave
    #     l=2, rc=4.2344 Bohr: 4d-dz split-valence wave
    #     l=1, rc=10.0469 Bohr: p-type Gaussian polarization
    #   Number of RI-basis functions 0

  Se:
    name: Selenium
    id: 32bc71fdf0f79e2eec071fc2341e94af
    Z: 34.0
    valence: 6
    core: 28
    charge: 0.0
    file: /home/ubuntu/.pyenv/versions/cemea-env/lib/python3.10/site-packages/gpaw_data/setups/Se.LDA.gz
    compensation charges: {type: gauss,
                           rc: 0.27,
                           lmax: 2}
    cutoffs: {filter: 1.77,
              core: 2.67}
    projectors:
      #              energy  rcut
      - 4s(2.00)   -17.472   0.847
      - 4p(4.00)    -6.656   1.005
      -  s           9.739   0.847
      -  p          20.555   1.005
      -  d           0.000   0.847
  
    # LCAO basis set for Se:
    #   Name: dzp
    #   File: /home/ubuntu/.pyenv/versions/cemea-env/lib/python3.10/site-packages/gpaw_data/setups/Se.dzp.basis.gz
    #   Number of radial functions: 5
    #   Number of spherical harmonics: 13
    #     l=0, rc=5.7344 Bohr: 4s-sz confined orbital
    #     l=1, rc=7.2656 Bohr: 4p-sz confined orbital
    #     l=0, rc=3.1875 Bohr: 4s-dz split-valence wave
    #     l=1, rc=4.2188 Bohr: 4p-dz split-valence wave
    #     l=2, rc=7.2656 Bohr: d-type Gaussian polarization
    #   Number of RI-basis functions 0

Reference energy: -968216.641274  # eV

Spin-paired calculation

Convergence criteria:
 Maximum [total energy] change in last 3 cyles: 1e-05 eV / valence electron
 Maximum integral of absolute [dens]ity change: 0.0001 electrons / valence electron
 Maximum integral of absolute [eigenst]ate change: 1e-05 eV^2 / valence electron
 Maximum number of scf [iter]ations: 333
 (Square brackets indicate name in SCF output, whereas a 'c' in
 the SCF output indicates the quantity has converged.)

Symmetries present (total): 12

  ( 1  1  0)  ( 1  1  0)  ( 1  0  0)  ( 1  0  0)  ( 0  1  0)  ( 0  1  0)
  ( 0 -1  0)  (-1  0  0)  ( 0  1  0)  (-1 -1  0)  ( 1  0  0)  (-1 -1  0)
  ( 0  0  1)  ( 0  0 -1)  ( 0  0  1)  ( 0  0 -1)  ( 0  0 -1)  ( 0  0  1)

  ( 0 -1  0)  ( 0 -1  0)  (-1  0  0)  (-1  0  0)  (-1 -1  0)  (-1 -1  0)
  ( 1  1  0)  (-1  0  0)  ( 1  1  0)  ( 0 -1  0)  ( 1  0  0)  ( 0  1  0)
  ( 0  0 -1)  ( 0  0  1)  ( 0  0  1)  ( 0  0 -1)  ( 0  0  1)  ( 0  0 -1)
Note: your k-points are not as symmetric as your crystal!

16 k-points: 4 x 4 x 1 Monkhorst-Pack grid
6 k-points in the irreducible part of the Brillouin zone
       k-points in crystal coordinates                weights
   0:     0.12500000   -0.12500000    0.00000000          2/16
   1:     0.12500000    0.12500000    0.00000000          2/16
   2:     0.37500000   -0.37500000    0.00000000          2/16
   3:     0.37500000   -0.12500000    0.00000000          4/16
   4:     0.37500000    0.12500000    0.00000000          4/16
   5:     0.37500000    0.37500000    0.00000000          2/16

Wave functions: LCAO
  Diagonalizer: Serial LAPACK
  Atomic Correction: dense with blas
  Data-type: complex
 

Occupation numbers: Fermi-Dirac:
  width: 0.1000  # eV
 

Eigensolver
   LCAO using direct dense diagonalizer 

Densities:
  Coarse grid: 28*28*96 grid
  Fine grid: 56*56*192 grid
  Total Charge: 0.000000 

Density mixing:
  Method: separate
  Backend: pulay
  Linear mixing parameter: 0.05
  old densities: 5
  Damping of long wavelength oscillations: 50 

Hamiltonian:
  XC and Coulomb potentials evaluated on a 56*56*192 grid
  Using the LDA Exchange-Correlation functional
  Interpolation: tri-quintic (5. degree polynomial)
  Poisson solver: FastPoissonSolver using
    Stencil: 8*3+1=25 point O(h^6) finite-difference Laplacian
    FFT axes: [np.int64(0), np.int64(1), np.int64(2)]
    FST axes: []
 

Memory estimate:
  Process memory now: 1584.81 MiB
  Calculator: 124.61 MiB
    Density: 53.81 MiB
      Arrays: 14.93 MiB
      Localized functions: 33.13 MiB
      Mixer: 5.74 MiB
    Hamiltonian: 12.04 MiB
      Arrays: 9.76 MiB
      XC: 0.00 MiB
      Poisson: 0.00 MiB
      vbar: 2.28 MiB
    Wavefunctions: 58.77 MiB
      C [qnM]: 1.35 MiB
      S, T [2 x qmm]: 8.86 MiB
      P [aqMi]: 0.22 MiB
      BasisFunctions: 48.34 MiB
      Eigensolver: 0.00 MiB

Total number of cores used: 1

Number of atoms: 12
Number of atomic orbitals: 220
Number of bands in calculation: 67
Number of valence electrons: 104
Bands to converge: occupied

... initialized

Initializing position-dependent things.

Density initialized from atomic densities
                                   
                                   
                                   
                                   
          Se      Se               
            Se      Se             
                                   
         Mo      Mo                
           MoSe    MoSe            
                                   
                Se      Se         
                                   
                                   
                                   
                                   

Atomic positions and initial magnetic moments

Positions:
   0 Mo     0.000000    0.000000    9.559400    ( 0.0000,  0.0000,  0.0000)
   1 Se     0.000000    1.898905   11.118800    ( 0.0000,  0.0000,  0.0000)
   2 Se     1.644500    0.949453    8.000000    ( 0.0000,  0.0000,  0.0000)
   3 Mo    -1.644500    2.848358    9.559400    ( 0.0000,  0.0000,  0.0000)
   4 Se    -1.644500    4.747263   11.118800    ( 0.0000,  0.0000,  0.0000)
   5 Se     0.000000    3.797810    8.000000    ( 0.0000,  0.0000,  0.0000)
   6 Mo     3.289000    0.000000    9.559400    ( 0.0000,  0.0000,  0.0000)
   7 Se     3.289000    1.898905   11.118800    ( 0.0000,  0.0000,  0.0000)
   8 Se     4.933500    0.949453    8.000000    ( 0.0000,  0.0000,  0.0000)
   9 Mo     1.644500    2.848358    9.559400    ( 0.0000,  0.0000,  0.0000)
  10 Se     1.644500    4.747263   11.118800    ( 0.0000,  0.0000,  0.0000)
  11 Se     3.289000    3.797810    8.000000    ( 0.0000,  0.0000,  0.0000)

Unit cell:
           periodic     x           y           z      points  spacing
  1. axis:    yes    6.578000    0.000000    0.000000    28     0.2035
  2. axis:    yes   -3.289000    5.696715    0.000000    28     0.2035
  3. axis:    yes    0.000000    0.000000   19.118800    96     0.1992

  Lengths:   6.578000   6.578000  19.118800
  Angles:   90.000000  90.000000 120.000000

Effective grid spacing dv^(1/3) = 0.2119

     iter     time        total  log10-change:
                         energy   eigst   dens
iter:   1 17:07:45   -86.580921        c
iter:   2 17:07:55   -85.439997        c -1.25
iter:   3 17:08:07   -83.991130        c -1.29
iter:   4 17:08:17   -83.732539        c -1.36
iter:   5 17:08:27   -84.102560        c -1.58
iter:   6 17:08:38   -83.204204        c -1.55
iter:   7 17:08:49   -83.079704        c -1.89
iter:   8 17:09:00   -83.055225        c -2.41
iter:   9 17:09:10   -83.054745        c -3.08
iter:  10 17:09:21   -83.054742c       c -3.71
iter:  11 17:09:32   -83.054743c       c -3.77
iter:  12 17:09:42   -83.054754c       c -3.80
iter:  13 17:09:53   -83.054758c       c -3.93
iter:  14 17:10:04   -83.054773c       c -4.00
iter:  15 17:10:14   -83.054773c       c -4.84c

Converged after 15 iterations.

Dipole moment: (-1.308477, -2.266348, -0.000000) |e|*Ang

Energy contributions relative to reference atoms: (reference = -968216.641274)

Kinetic:       +137.085449
Potential:     -138.648535
External:        +0.000000
XC:             -82.108651
Entropy (-ST):   -0.158555
Local:           +0.696242
SIC:             +0.000000
--------------------------
Free energy:    -83.134050
Extrapolated:   -83.054773

Showing only first 2 kpts
 Kpt  Band  Eigenvalues  Occupancy
  0    50     -1.54502    2.00000
  0    51     -1.19862    1.99985
  0    52     -0.05633    0.25631
  0    53      0.07386    0.07689

  1    50     -1.25053    1.99991
  1    51     -1.15855    1.99978
  1    52      0.02125    0.12675
  1    53      0.24186    0.01479


Fermi level: -0.24807

No gap
No difference between direct/indirect transitions
Timing:                              incl.     excl.
-----------------------------------------------------------
Basic WFS set positions:             0.002     0.002   0.0% |
Basis functions set positions:       0.066     0.066   0.0% |
LCAO WFS Initialize:                 0.261     0.072   0.0% |
 Hamiltonian:                        0.190     0.000   0.0% |
  Atomic:                            0.081     0.001   0.0% |
   XC Correction:                    0.079     0.079   0.1% |
  Calculate atomic Hamiltonians:     0.007     0.007   0.0% |
  Communicate:                       0.000     0.000   0.0% |
  Hartree integrate/restrict:        0.006     0.006   0.0% |
  Initialize Hamiltonian:            0.000     0.000   0.0% |
  Poisson:                           0.065     0.004   0.0% |
   Communicate from 1D:              0.010     0.010   0.0% |
   Communicate from 2D:              0.010     0.010   0.0% |
   Communicate to 1D:                0.009     0.009   0.0% |
   Communicate to 2D:                0.009     0.009   0.0% |
   FFT 1D:                           0.005     0.005   0.0% |
   FFT 2D:                           0.019     0.019   0.0% |
  XC 3D grid:                        0.029     0.029   0.0% |
  vbar:                              0.001     0.001   0.0% |
P tci:                               0.459     0.459   0.3% |
SCF-cycle:                         152.732     0.037   0.0% |
 Density:                          101.354     0.000   0.0% |
  Atomic density matrices:           0.042     0.042   0.0% |
  Mix:                               2.734     2.734   1.8% ||
  Multipole moments:                 0.003     0.003   0.0% |
  Normalize:                         0.001     0.001   0.0% |
  Pseudo density:                   98.575     0.006   0.0% |
   Calculate density matrix:         1.230     1.230   0.8% |
   Construct density:               97.184    97.184  62.8% |------------------------|
   Symmetrize density:               0.154     0.154   0.1% |
 Hamiltonian:                        3.225     0.002   0.0% |
  Atomic:                            1.206     0.028   0.0% |
   XC Correction:                    1.178     1.178   0.8% |
  Calculate atomic Hamiltonians:     0.139     0.139   0.1% |
  Communicate:                       0.000     0.000   0.0% |
  Hartree integrate/restrict:        0.317     0.317   0.2% |
  Poisson:                           0.902     0.031   0.0% |
   Communicate from 1D:              0.124     0.124   0.1% |
   Communicate from 2D:              0.136     0.136   0.1% |
   Communicate to 1D:                0.144     0.144   0.1% |
   Communicate to 2D:                0.126     0.126   0.1% |
   FFT 1D:                           0.072     0.072   0.0% |
   FFT 2D:                           0.269     0.269   0.2% |
  XC 3D grid:                        0.514     0.514   0.3% |
  vbar:                              0.145     0.145   0.1% |
 LCAO eigensolver:                  48.115     0.012   0.0% |
  Calculate projections:             0.842     0.842   0.5% |
  DenseAtomicCorrection:             6.184     6.184   4.0% |-|
  Distribute overlap matrix:         0.010     0.010   0.0% |
  Orbital Layouts:                  14.663    14.663   9.5% |---|
  Potential matrix:                 24.939    24.939  16.1% |-----|
  Sum over cells:                    1.465     1.465   0.9% |
ST tci:                              0.287     0.287   0.2% |
Set symmetry:                        0.002     0.002   0.0% |
TCI: Evaluate splines:               0.271     0.271   0.2% |
mktci:                               0.009     0.009   0.0% |
Other:                               0.670     0.670   0.4% |
-----------------------------------------------------------
Total:                                       154.760 100.0%

Memory usage: 1.55 GiB
Date: Thu Feb 12 17:10:14 2026
