
  ___ ___ ___ _ _ _  
 |   |   |_  | | | | 
 | | | | | . | | | | 
 |__ |  _|___|_____|  25.7.0
 |___|_|             

User:   ubuntu@third-test
Date:   Wed Feb 18 10:42:08 2026
Arch:   x86_64
Pid:    2718679
CWD:    /mnt/vdd1/work/cemea/fairchem/src/fairchem/applications/ocx/mo_h_adsorption_workflow
Python: 3.10.16
gpaw:   /home/ubuntu/.pyenv/versions/cemea-env/lib/python3.10/site-packages/gpaw
_gpaw:  /home/ubuntu/.pyenv/versions/cemea-env/lib/python3.10/site-packages/
        _gpaw.cpython-310-x86_64-linux-gnu.so
ase:    /home/ubuntu/.pyenv/versions/cemea-env/lib/python3.10/site-packages/ase (version 3.27.0)
numpy:  /home/ubuntu/.pyenv/versions/cemea-env/lib/python3.10/site-packages/numpy (version 2.2.6)
scipy:  /home/ubuntu/.pyenv/versions/cemea-env/lib/python3.10/site-packages/scipy (version 1.15.3)
libxc:  2.x.y
units:  Angstrom and eV
cores: 1
OpenMP: False
OMP_NUM_THREADS: 1

Input parameters:
  basis: dzp
  convergence: {density: 0.0001,
                eigenstates: 1e-05,
                energy: 1e-05}
  kpts: [4 4 1]
  mode: lcao

System changes: positions, numbers, cell, pbc, initial_charges, initial_magmoms 

Initialize ...

species:
  Mo:
    name: Molybdenum
    id: ac24daaf086600a00ce6d19a74574df1
    Z: 42.0
    valence: 14
    core: 28
    charge: 0.0
    file: /home/ubuntu/.pyenv/versions/cemea-env/lib/python3.10/site-packages/gpaw_data/setups/Mo.LDA.gz
    compensation charges: {type: gauss,
                           rc: 0.38,
                           lmax: 2}
    cutoffs: {filter: 2.16,
              core: 1.42}
    projectors:
      #              energy  rcut
      - 4s(2.00)   -64.384   1.238
      - 5s(1.00)    -4.319   1.238
      - 4p(6.00)   -38.595   1.296
      - 5p(0.00)    -1.161   1.296
      - 4d(5.00)    -3.933   1.296
      -  d          23.278   1.296
  
    # LCAO basis set for Mo:
    #   Name: dzp
    #   File: /home/ubuntu/.pyenv/versions/cemea-env/lib/python3.10/site-packages/gpaw_data/setups/Mo.dzp.basis.gz
    #   Number of radial functions: 11
    #   Number of spherical harmonics: 29
    #     l=0, rc=3.5469 Bohr: 4s-sz confined orbital
    #     l=0, rc=10.0469 Bohr: 5s-sz confined orbital
    #     l=1, rc=4.0781 Bohr: 4p-sz confined orbital
    #     l=1, rc=14.0938 Bohr: 5p-sz confined orbital
    #     l=2, rc=7.2031 Bohr: 4d-sz confined orbital
    #     l=0, rc=2.1250 Bohr: 4s-dz split-valence wave
    #     l=0, rc=6.1250 Bohr: 5s-dz split-valence wave
    #     l=1, rc=2.5469 Bohr: 4p-dz split-valence wave
    #     l=1, rc=8.7656 Bohr: 5p-dz split-valence wave
    #     l=2, rc=4.2344 Bohr: 4d-dz split-valence wave
    #     l=1, rc=10.0469 Bohr: p-type Gaussian polarization
    #   Number of RI-basis functions 0

  P:
    name: Phosphorus
    id: a5561c299094968922a179ab894d2e2d
    Z: 15.0
    valence: 5
    core: 10
    charge: 0.0
    file: /home/ubuntu/.pyenv/versions/cemea-env/lib/python3.10/site-packages/gpaw_data/setups/P.LDA.gz
    compensation charges: {type: gauss,
                           rc: 0.30,
                           lmax: 2}
    cutoffs: {filter: 1.69,
              core: 1.81}
    projectors:
      #              energy  rcut
      - 3s(2.00)   -14.015   0.953
      - 3p(3.00)    -5.596   0.953
      -  s          13.197   0.953
      -  p          21.615   0.953
      -  d           0.000   0.953
  
    # LCAO basis set for P:
    #   Name: dzp
    #   File: /home/ubuntu/.pyenv/versions/cemea-env/lib/python3.10/site-packages/gpaw_data/setups/P.dzp.basis.gz
    #   Number of radial functions: 5
    #   Number of spherical harmonics: 13
    #     l=0, rc=6.0938 Bohr: 3s-sz confined orbital
    #     l=1, rc=7.7031 Bohr: 3p-sz confined orbital
    #     l=0, rc=3.4375 Bohr: 3s-dz split-valence wave
    #     l=1, rc=4.4688 Bohr: 3p-dz split-valence wave
    #     l=2, rc=7.7031 Bohr: d-type Gaussian polarization
    #   Number of RI-basis functions 0

  H:
    name: Hydrogen
    id: 4766778ce56282eaa64abeb28b7c1de3
    Z: 1.0
    valence: 1
    core: 0
    charge: 0.0
    file: /home/ubuntu/.pyenv/versions/cemea-env/lib/python3.10/site-packages/gpaw_data/setups/H.LDA.gz
    compensation charges: {type: gauss,
                           rc: 0.15,
                           lmax: 2}
    cutoffs: {filter: 0.85,
              core: 0.53}
    projectors:
      #              energy  rcut
      - 1s(1.00)    -6.353   0.476
      -  s          20.858   0.476
      -  p           0.000   0.476
  
    # LCAO basis set for H:
    #   Name: dzp
    #   File: /home/ubuntu/.pyenv/versions/cemea-env/lib/python3.10/site-packages/gpaw_data/setups/H.dzp.basis.gz
    #   Number of radial functions: 3
    #   Number of spherical harmonics: 5
    #     l=0, rc=6.4219 Bohr: 1s-sz confined orbital
    #     l=0, rc=3.6094 Bohr: 1s-dz split-valence wave
    #     l=1, rc=6.4219 Bohr: p-type Gaussian polarization
    #   Number of RI-basis functions 0

Reference energy: -477181.804338  # eV

Spin-paired calculation

Convergence criteria:
 Maximum [total energy] change in last 3 cyles: 1e-05 eV / valence electron
 Maximum integral of absolute [dens]ity change: 0.0001 electrons / valence electron
 Maximum integral of absolute [eigenst]ate change: 1e-05 eV^2 / valence electron
 Maximum number of scf [iter]ations: 333
 (Square brackets indicate name in SCF output, whereas a 'c' in
 the SCF output indicates the quantity has converged.)

Symmetries present (total): 2

  ( 1  0  0)  ( 0  1  0)
  ( 0  1  0)  ( 1  0  0)
  ( 0  0  1)  ( 0  0  1)

16 k-points: 4 x 4 x 1 Monkhorst-Pack grid
6 k-points in the irreducible part of the Brillouin zone
       k-points in crystal coordinates                weights
   0:     0.12500000   -0.12500000    0.00000000          2/16
   1:     0.12500000    0.12500000    0.00000000          2/16
   2:     0.37500000   -0.37500000    0.00000000          2/16
   3:     0.37500000   -0.12500000    0.00000000          4/16
   4:     0.37500000    0.12500000    0.00000000          4/16
   5:     0.37500000    0.37500000    0.00000000          2/16

Wave functions: LCAO
  Diagonalizer: Serial LAPACK
  Atomic Correction: dense with blas
  Data-type: complex
 

Occupation numbers: Fermi-Dirac:
  width: 0.1000  # eV
 

Eigensolver
   LCAO using direct dense diagonalizer 

Densities:
  Coarse grid: 32*32*88 grid
  Fine grid: 64*64*176 grid
  Total Charge: 0.000000 

Density mixing:
  Method: separate
  Backend: pulay
  Linear mixing parameter: 0.05
  old densities: 5
  Damping of long wavelength oscillations: 50 

Hamiltonian:
  XC and Coulomb potentials evaluated on a 64*64*176 grid
  Using the LDA Exchange-Correlation functional
  Interpolation: tri-quintic (5. degree polynomial)
  Poisson solver: FastPoissonSolver using
    Stencil: 6*3+1=19 point O(h^6) finite-difference Laplacian
    FFT axes: [np.int64(0), np.int64(1), np.int64(2)]
    FST axes: []
 

Memory estimate:
  Process memory now: 1340.54 MiB
  Calculator: 122.53 MiB
    Density: 52.42 MiB
      Arrays: 17.88 MiB
      Localized functions: 27.67 MiB
      Mixer: 6.88 MiB
    Hamiltonian: 13.56 MiB
      Arrays: 11.69 MiB
      XC: 0.00 MiB
      Poisson: 0.00 MiB
      vbar: 1.88 MiB
    Wavefunctions: 56.55 MiB
      C [qnM]: 0.81 MiB
      S, T [2 x qmm]: 5.48 MiB
      P [aqMi]: 0.13 MiB
      BasisFunctions: 50.13 MiB
      Eigensolver: 0.00 MiB

Total number of cores used: 1

Number of atoms: 9
Number of atomic orbitals: 173
Number of bands in calculation: 51
Number of valence electrons: 77
Bands to converge: occupied

... initialized

Initializing position-dependent things.

Density initialized from atomic densities
     .---------------.  
    /|               |  
   / |               |  
  /  |               |  
 *   |               |  
 |   |               |  
 |   |               |  
 |   |               |  
 |   |               |  
 |   |               |  
 |   |               |  
 |   |  H       P    |  
 |   |               |  
 |   |P       P      |  
 | Mo|     Mo        |  
 |   |               |  
 Mo  |   Mo          |  
 |   |               |  
 |   |               |  
 |   |               |  
 |   |               |  
 |   |               |  
 |   .---------------.  
 |  /               /   
 | /               /    
 |/               /     
 *---------------*      

Atomic positions and initial magnetic moments

Positions:
   0 Mo     0.000000    0.000000    8.000000    ( 0.0000,  0.0000,  0.0000)
   1 P      1.620000    1.620000    9.620000    ( 0.0000,  0.0000,  0.0000)
   2 Mo     0.000000    3.240000    8.000000    ( 0.0000,  0.0000,  0.0000)
   3 P      1.620000    4.860000    9.620000    ( 0.0000,  0.0000,  0.0000)
   4 Mo     3.240000    0.000000    8.000000    ( 0.0000,  0.0000,  0.0000)
   5 P      4.860000    1.620000    9.620000    ( 0.0000,  0.0000,  0.0000)
   6 Mo     3.240000    3.240000    8.000000    ( 0.0000,  0.0000,  0.0000)
   7 P      4.860000    4.860000    9.620000    ( 0.0000,  0.0000,  0.0000)
   8 H      2.430000    2.430000   11.120000    ( 0.0000,  0.0000,  0.0000)

Unit cell:
           periodic     x           y           z      points  spacing
  1. axis:    yes    6.480000    0.000000    0.000000    32     0.2025
  2. axis:    yes    0.000000    6.480000    0.000000    32     0.2025
  3. axis:    yes    0.000000    0.000000   17.620000    88     0.2002

  Lengths:   6.480000   6.480000  17.620000
  Angles:   90.000000  90.000000  90.000000

Effective grid spacing dv^(1/3) = 0.2017

     iter     time        total  log10-change:
                         energy   eigst   dens
iter:   1 10:42:31   -62.229973        c
iter:   2 10:42:58   -60.502043        c -1.03
iter:   3 10:43:24   -59.059798        c -1.11
iter:   4 10:43:48   -57.805180        c -1.19
iter:   5 10:44:14   -57.747549        c -1.47
iter:   6 10:44:40   -57.508805        c -1.53
iter:   7 10:45:04   -57.497727        c -1.98
iter:   8 10:45:31   -57.493778        c -2.08
iter:   9 10:46:01   -57.476597        c -2.12
iter:  10 10:46:31   -57.475315        c -2.45
iter:  11 10:46:57   -57.473539        c -2.52
iter:  12 10:47:24   -57.469949        c -2.60
iter:  13 10:47:54   -57.469874        c -2.95
iter:  14 10:48:23   -57.469914c       c -3.01
iter:  15 10:48:46   -57.469970c       c -3.06
iter:  16 10:49:12   -57.469899c       c -3.30
iter:  17 10:49:42   -57.469880c       c -3.47
iter:  18 10:50:11   -57.469874c       c -3.58
iter:  19 10:50:37   -57.469887c       c -3.74
iter:  20 10:51:04   -57.469900c       c -3.87
iter:  21 10:51:34   -57.469906c       c -4.08c

Converged after 21 iterations.

Dipole moment: (-4.384835, -4.384835, -0.241510) |e|*Ang

Energy contributions relative to reference atoms: (reference = -477181.804338)

Kinetic:       -103.425968
Potential:      +67.259202
External:        +0.000000
XC:             -21.361978
Entropy (-ST):   -0.508311
Local:           +0.312993
SIC:             +0.000000
--------------------------
Free energy:    -57.724061
Extrapolated:   -57.469906

Showing only first 2 kpts
 Kpt  Band  Eigenvalues  Occupancy
  0    36     -2.33803    1.52973
  0    37     -2.30899    1.41745
  0    38     -2.22093    1.00428
  0    39     -1.88063    0.06494

  1    36     -2.33440    1.51656
  1    37     -2.31952    1.45996
  1    38     -2.21904    0.99486
  1    39     -1.88397    0.06707


Fermi level: -2.22007

No gap
No difference between direct/indirect transitions
Timing:                              incl.     excl.
-----------------------------------------------------------
Basic WFS set positions:             0.000     0.000   0.0% |
Basis functions set positions:       0.056     0.056   0.0% |
LCAO WFS Initialize:                 0.294     0.079   0.0% |
 Hamiltonian:                        0.215     0.000   0.0% |
  Atomic:                            0.053     0.001   0.0% |
   XC Correction:                    0.052     0.052   0.0% |
  Calculate atomic Hamiltonians:     0.007     0.007   0.0% |
  Communicate:                       0.000     0.000   0.0% |
  Hartree integrate/restrict:        0.014     0.014   0.0% |
  Initialize Hamiltonian:            0.001     0.001   0.0% |
  Poisson:                           0.092     0.004   0.0% |
   Communicate from 1D:              0.012     0.012   0.0% |
   Communicate from 2D:              0.016     0.016   0.0% |
   Communicate to 1D:                0.011     0.011   0.0% |
   Communicate to 2D:                0.012     0.012   0.0% |
   FFT 1D:                           0.008     0.008   0.0% |
   FFT 2D:                           0.029     0.029   0.0% |
  XC 3D grid:                        0.038     0.038   0.0% |
  vbar:                              0.009     0.009   0.0% |
P tci:                               0.305     0.305   0.1% |
SCF-cycle:                         564.349     0.036   0.0% |
 Density:                          120.167     0.001   0.0% |
  Atomic density matrices:           0.039     0.039   0.0% |
  Mix:                               6.621     6.621   1.2% |
  Multipole moments:                 0.004     0.004   0.0% |
  Normalize:                         0.002     0.002   0.0% |
  Pseudo density:                  113.501     0.010   0.0% |
   Calculate density matrix:         2.229     2.229   0.4% |
   Construct density:              111.209   111.209  19.6% |-------|
   Symmetrize density:               0.053     0.053   0.0% |
 Hamiltonian:                        4.912     0.002   0.0% |
  Atomic:                            1.130     0.018   0.0% |
   XC Correction:                    1.112     1.112   0.2% |
  Calculate atomic Hamiltonians:     0.140     0.140   0.0% |
  Communicate:                       0.000     0.000   0.0% |
  Hartree integrate/restrict:        0.745     0.745   0.1% |
  Poisson:                           1.546     0.060   0.0% |
   Communicate from 1D:              0.221     0.221   0.0% |
   Communicate from 2D:              0.250     0.250   0.0% |
   Communicate to 1D:                0.215     0.215   0.0% |
   Communicate to 2D:                0.223     0.223   0.0% |
   FFT 1D:                           0.166     0.166   0.0% |
   FFT 2D:                           0.411     0.411   0.1% |
  XC 3D grid:                        0.989     0.989   0.2% |
  vbar:                              0.360     0.360   0.1% |
 LCAO eigensolver:                 439.234     0.019   0.0% |
  Calculate projections:             0.432     0.432   0.1% |
  DenseAtomicCorrection:             9.049     9.049   1.6% ||
  Distribute overlap matrix:         0.011     0.011   0.0% |
  Orbital Layouts:                 398.696   398.696  70.4% |---------------------------|
  Potential matrix:                 27.738    27.738   4.9% |-|
  Sum over cells:                    3.288     3.288   0.6% |
ST tci:                              0.193     0.193   0.0% |
Set symmetry:                        0.001     0.001   0.0% |
TCI: Evaluate splines:               0.354     0.354   0.1% |
mktci:                               0.006     0.006   0.0% |
Other:                               0.528     0.528   0.1% |
-----------------------------------------------------------
Total:                                       566.087 100.0%

Memory usage: 1.31 GiB
Date: Wed Feb 18 10:51:34 2026
