
  ___ ___ ___ _ _ _  
 |   |   |_  | | | | 
 | | | | | . | | | | 
 |__ |  _|___|_____|  25.7.0
 |___|_|             

User:   ubuntu@third-test
Date:   Mon Feb 16 12:40:05 2026
Arch:   x86_64
Pid:    2718679
CWD:    /mnt/vdd1/work/cemea/fairchem/src/fairchem/applications/ocx/mo_h_adsorption_workflow
Python: 3.10.16
gpaw:   /home/ubuntu/.pyenv/versions/cemea-env/lib/python3.10/site-packages/gpaw
_gpaw:  /home/ubuntu/.pyenv/versions/cemea-env/lib/python3.10/site-packages/
        _gpaw.cpython-310-x86_64-linux-gnu.so
ase:    /home/ubuntu/.pyenv/versions/cemea-env/lib/python3.10/site-packages/ase (version 3.27.0)
numpy:  /home/ubuntu/.pyenv/versions/cemea-env/lib/python3.10/site-packages/numpy (version 2.2.6)
scipy:  /home/ubuntu/.pyenv/versions/cemea-env/lib/python3.10/site-packages/scipy (version 1.15.3)
libxc:  2.x.y
units:  Angstrom and eV
cores: 1
OpenMP: False
OMP_NUM_THREADS: 1

Input parameters:
  basis: dzp
  convergence: {density: 0.0001,
                eigenstates: 1e-05,
                energy: 1e-05}
  kpts: [4 4 1]
  mode: lcao

System changes: positions, numbers, cell, pbc, initial_charges, initial_magmoms 

Initialize ...

species:
  Mo:
    name: Molybdenum
    id: ac24daaf086600a00ce6d19a74574df1
    Z: 42.0
    valence: 14
    core: 28
    charge: 0.0
    file: /home/ubuntu/.pyenv/versions/cemea-env/lib/python3.10/site-packages/gpaw_data/setups/Mo.LDA.gz
    compensation charges: {type: gauss,
                           rc: 0.38,
                           lmax: 2}
    cutoffs: {filter: 2.16,
              core: 1.42}
    projectors:
      #              energy  rcut
      - 4s(2.00)   -64.384   1.238
      - 5s(1.00)    -4.319   1.238
      - 4p(6.00)   -38.595   1.296
      - 5p(0.00)    -1.161   1.296
      - 4d(5.00)    -3.933   1.296
      -  d          23.278   1.296
  
    # LCAO basis set for Mo:
    #   Name: dzp
    #   File: /home/ubuntu/.pyenv/versions/cemea-env/lib/python3.10/site-packages/gpaw_data/setups/Mo.dzp.basis.gz
    #   Number of radial functions: 11
    #   Number of spherical harmonics: 29
    #     l=0, rc=3.5469 Bohr: 4s-sz confined orbital
    #     l=0, rc=10.0469 Bohr: 5s-sz confined orbital
    #     l=1, rc=4.0781 Bohr: 4p-sz confined orbital
    #     l=1, rc=14.0938 Bohr: 5p-sz confined orbital
    #     l=2, rc=7.2031 Bohr: 4d-sz confined orbital
    #     l=0, rc=2.1250 Bohr: 4s-dz split-valence wave
    #     l=0, rc=6.1250 Bohr: 5s-dz split-valence wave
    #     l=1, rc=2.5469 Bohr: 4p-dz split-valence wave
    #     l=1, rc=8.7656 Bohr: 5p-dz split-valence wave
    #     l=2, rc=4.2344 Bohr: 4d-dz split-valence wave
    #     l=1, rc=10.0469 Bohr: p-type Gaussian polarization
    #   Number of RI-basis functions 0

  Ir:
    name: Iridium
    id: ca472fc5a58bba06e8299391bae24b72
    Z: 77.0
    valence: 15
    core: 62
    charge: 0.0
    file: /home/ubuntu/.pyenv/versions/cemea-env/lib/python3.10/site-packages/gpaw_data/setups/Ir.LDA.gz
    compensation charges: {type: gauss,
                           rc: 0.40,
                           lmax: 2}
    cutoffs: {filter: 2.40,
              core: 2.36}
    projectors:
      #              energy  rcut
      - 6s(2.00)    -6.559   1.296
      - 5p(6.00)   -54.966   1.328
      - 6p(0.00)    -1.355   1.328
      - 5d(7.00)    -7.377   1.286
      -  s          20.652   1.296
      -  d          19.835   1.286
  
    # LCAO basis set for Ir:
    #   Name: dzp
    #   File: /home/ubuntu/.pyenv/versions/cemea-env/lib/python3.10/site-packages/gpaw_data/setups/Ir.dzp.basis.gz
    #   Number of radial functions: 9
    #   Number of spherical harmonics: 27
    #     l=0, rc=8.4062 Bohr: 6s-sz confined orbital
    #     l=1, rc=3.6406 Bohr: 5p-sz confined orbital
    #     l=1, rc=12.7031 Bohr: 6p-sz confined orbital
    #     l=2, rc=6.0469 Bohr: 5d-sz confined orbital
    #     l=0, rc=4.9844 Bohr: 6s-dz split-valence wave
    #     l=1, rc=2.4062 Bohr: 5p-dz split-valence wave
    #     l=1, rc=7.7969 Bohr: 6p-dz split-valence wave
    #     l=2, rc=3.5938 Bohr: 5d-dz split-valence wave
    #     l=1, rc=8.4062 Bohr: p-type Gaussian polarization
    #   Number of RI-basis functions 0

  N:
    name: Nitrogen
    id: c467cdfa1b75f62c8f7a0469921b1cfb
    Z: 7.0
    valence: 5
    core: 2
    charge: 0.0
    file: /home/ubuntu/.pyenv/versions/cemea-env/lib/python3.10/site-packages/gpaw_data/setups/N.LDA.gz
    compensation charges: {type: gauss,
                           rc: 0.18,
                           lmax: 2}
    cutoffs: {filter: 1.11,
              core: 0.96}
    projectors:
      #              energy  rcut
      - 2s(2.00)   -18.420   0.603
      - 2p(3.00)    -7.237   0.529
      -  s           8.791   0.603
      -  p          19.974   0.529
      -  d           0.000   0.577
  
    # LCAO basis set for N:
    #   Name: dzp
    #   File: /home/ubuntu/.pyenv/versions/cemea-env/lib/python3.10/site-packages/gpaw_data/setups/N.dzp.basis.gz
    #   Number of radial functions: 5
    #   Number of spherical harmonics: 13
    #     l=0, rc=4.8594 Bohr: 2s-sz confined orbital
    #     l=1, rc=6.0625 Bohr: 2p-sz confined orbital
    #     l=0, rc=2.6094 Bohr: 2s-dz split-valence wave
    #     l=1, rc=3.2656 Bohr: 2p-dz split-valence wave
    #     l=2, rc=6.0625 Bohr: d-type Gaussian polarization
    #   Number of RI-basis functions 0

Reference energy: -1260234.426999  # eV

Spin-paired calculation

Convergence criteria:
 Maximum [total energy] change in last 3 cyles: 1e-05 eV / valence electron
 Maximum integral of absolute [dens]ity change: 0.0001 electrons / valence electron
 Maximum integral of absolute [eigenst]ate change: 1e-05 eV^2 / valence electron
 Maximum number of scf [iter]ations: 333
 (Square brackets indicate name in SCF output, whereas a 'c' in
 the SCF output indicates the quantity has converged.)

Symmetries present (total): 2

  ( 1  0  0)  ( 0  1  0)
  ( 0  1  0)  ( 1  0  0)
  ( 0  0  1)  ( 0  0  1)

16 k-points: 4 x 4 x 1 Monkhorst-Pack grid
6 k-points in the irreducible part of the Brillouin zone
       k-points in crystal coordinates                weights
   0:     0.12500000   -0.12500000    0.00000000          2/16
   1:     0.12500000    0.12500000    0.00000000          2/16
   2:     0.37500000   -0.37500000    0.00000000          2/16
   3:     0.37500000   -0.12500000    0.00000000          4/16
   4:     0.37500000    0.12500000    0.00000000          4/16
   5:     0.37500000    0.37500000    0.00000000          2/16

Wave functions: LCAO
  Diagonalizer: Serial LAPACK
  Atomic Correction: dense with blas
  Data-type: complex
 

Occupation numbers: Fermi-Dirac:
  width: 0.1000  # eV
 

Eigensolver
   LCAO using direct dense diagonalizer 

Densities:
  Coarse grid: 40*40*92 grid
  Fine grid: 80*80*184 grid
  Total Charge: 0.000000 

Density mixing:
  Method: separate
  Backend: pulay
  Linear mixing parameter: 0.05
  old densities: 5
  Damping of long wavelength oscillations: 50 

Hamiltonian:
  XC and Coulomb potentials evaluated on a 80*80*184 grid
  Using the LDA Exchange-Correlation functional
  Interpolation: tri-quintic (5. degree polynomial)
  Poisson solver: FastPoissonSolver using
    Stencil: 6*3+1=19 point O(h^6) finite-difference Laplacian
    FFT axes: [np.int64(0), np.int64(1), np.int64(2)]
    FST axes: []
 

Memory estimate:
  Process memory now: 1323.74 MiB
  Calculator: 197.66 MiB
    Density: 80.57 MiB
      Arrays: 29.20 MiB
      Localized functions: 40.14 MiB
      Mixer: 11.23 MiB
    Hamiltonian: 21.79 MiB
      Arrays: 19.09 MiB
      XC: 0.00 MiB
      Poisson: 0.00 MiB
      vbar: 2.69 MiB
    Wavefunctions: 95.30 MiB
      C [qnM]: 2.17 MiB
      S, T [2 x qmm]: 14.56 MiB
      P [aqMi]: 0.32 MiB
      BasisFunctions: 78.26 MiB
      Eigensolver: 0.00 MiB

Total number of cores used: 1

Number of atoms: 12
Number of atomic orbitals: 282
Number of bands in calculation: 84
Number of valence electrons: 133
Bands to converge: occupied

... initialized

Initializing position-dependent things.

Density initialized from atomic densities
      .-------------------.  
     /|                   |  
    / |                   |  
   /  |                   |  
  /   |                   |  
 *    |                   |  
 |    |                   |  
 |    |                   |  
 |    |                   |  
 |    |                   |  
 |    |                   |  
 |    |   Mo        Mo    |  
 |    |                   |  
 |    |Ir        Mo       |  
 |    |   N         N     |  
 |  Mo|       Mo          |  
 |    |N         N        |  
 Mo   |    Mo             |  
 |    |                   |  
 |    |                   |  
 |    |                   |  
 |    |                   |  
 |    .-------------------.  
 |   /                   /   
 |  /                   /    
 | /                   /     
 |/                   /      
 *-------------------*       

Atomic positions and initial magnetic moments

Positions:
   0 Mo     0.000000    0.000000    8.000000    ( 0.0000,  0.0000,  0.0000)
   1 Ir     2.080000    2.080000   10.080000    ( 0.0000,  0.0000,  0.0000)
   2 N      2.080000    2.080000    8.000000    ( 0.0000,  0.0000,  0.0000)
   3 Mo     0.000000    4.160000    8.000000    ( 0.0000,  0.0000,  0.0000)
   4 Mo     2.080000    6.240000   10.080000    ( 0.0000,  0.0000,  0.0000)
   5 N      2.080000    6.240000    8.000000    ( 0.0000,  0.0000,  0.0000)
   6 Mo     4.160000    0.000000    8.000000    ( 0.0000,  0.0000,  0.0000)
   7 Mo     6.240000    2.080000   10.080000    ( 0.0000,  0.0000,  0.0000)
   8 N      6.240000    2.080000    8.000000    ( 0.0000,  0.0000,  0.0000)
   9 Mo     4.160000    4.160000    8.000000    ( 0.0000,  0.0000,  0.0000)
  10 Mo     6.240000    6.240000   10.080000    ( 0.0000,  0.0000,  0.0000)
  11 N      6.240000    6.240000    8.000000    ( 0.0000,  0.0000,  0.0000)

Unit cell:
           periodic     x           y           z      points  spacing
  1. axis:    yes    8.320000    0.000000    0.000000    40     0.2080
  2. axis:    yes    0.000000    8.320000    0.000000    40     0.2080
  3. axis:    yes    0.000000    0.000000   18.080000    92     0.1965

  Lengths:   8.320000   8.320000  18.080000
  Angles:   90.000000  90.000000  90.000000

Effective grid spacing dv^(1/3) = 0.2041

     iter     time        total  log10-change:
                         energy   eigst   dens
iter:   1 12:41:14   -92.877581        c
iter:   2 12:42:42   -83.309019        c -0.86
iter:   3 12:44:05   -80.465615        c -1.01
iter:   4 12:45:25   -77.580131        c -1.03
iter:   5 12:46:32   -77.336467        c -1.17
iter:   6 12:47:40   -75.961688        c -1.17
iter:   7 12:49:00   -74.373117        c -1.26
iter:   8 12:50:23   -74.117691        c -1.49
iter:   9 12:51:39   -74.001573        c -1.66
iter:  10 12:52:50   -73.953608        c -1.80
iter:  11 12:54:18   -73.950070        c -1.88
iter:  12 12:55:40   -73.875715        c -1.91
iter:  13 12:56:51   -73.857032        c -2.12
iter:  14 12:58:15   -73.856759        c -2.28
iter:  15 12:59:30   -73.850171        c -2.35
iter:  16 13:00:58   -73.845826        c -2.44
iter:  17 13:02:10   -73.843151        c -2.71
iter:  18 13:03:32   -73.841840        c -2.87
iter:  19 13:04:55   -73.841711        c -2.93
iter:  20 13:06:15   -73.841510c       c -2.96
iter:  21 13:07:30   -73.841411c       c -3.05
iter:  22 13:08:46   -73.841450c       c -3.08
iter:  23 13:10:02   -73.841834c       c -3.14
iter:  24 13:11:29   -73.841798c       c -3.19
iter:  25 13:12:44   -73.842103c       c -3.26
iter:  26 13:13:58   -73.841994c       c -3.23
iter:  27 13:15:18   -73.842195c       c -3.41
iter:  28 13:16:25   -73.842025c       c -3.67
iter:  29 13:17:54   -73.842073c       c -3.89
iter:  30 13:19:11   -73.842102c       c -4.06c

Converged after 30 iterations.

Dipole moment: (-5.133590, -5.133590, 0.303656) |e|*Ang

Energy contributions relative to reference atoms: (reference = -1260234.426999)

Kinetic:       -186.648556
Potential:     +127.176783
External:        +0.000000
XC:             -15.716096
Entropy (-ST):   -1.407523
Local:           +2.049529
SIC:             +0.000000
--------------------------
Free energy:    -74.545863
Extrapolated:   -73.842102

Showing only first 2 kpts
 Kpt  Band  Eigenvalues  Occupancy
  0    64     -2.07251    0.99155
  0    65     -2.06276    0.94287
  0    66     -2.04455    0.85282
  0    67     -2.02862    0.77594

  1    64     -2.07251    0.99155
  1    65     -2.06276    0.94287
  1    66     -2.04455    0.85281
  1    67     -2.02862    0.77594


Fermi level: -2.07420

No gap
No difference between direct/indirect transitions
Timing:                              incl.     excl.
-----------------------------------------------------------
Basic WFS set positions:             0.000     0.000   0.0% |
Basis functions set positions:       0.086     0.086   0.0% |
LCAO WFS Initialize:                 0.412     0.077   0.0% |
 Hamiltonian:                        0.336     0.000   0.0% |
  Atomic:                            0.078     0.001   0.0% |
   XC Correction:                    0.077     0.077   0.0% |
  Calculate atomic Hamiltonians:     0.008     0.008   0.0% |
  Communicate:                       0.000     0.000   0.0% |
  Hartree integrate/restrict:        0.026     0.026   0.0% |
  Initialize Hamiltonian:            0.001     0.001   0.0% |
  Poisson:                           0.158     0.010   0.0% |
   Communicate from 1D:              0.023     0.023   0.0% |
   Communicate from 2D:              0.020     0.020   0.0% |
   Communicate to 1D:                0.026     0.026   0.0% |
   Communicate to 2D:                0.024     0.024   0.0% |
   FFT 1D:                           0.021     0.021   0.0% |
   FFT 2D:                           0.034     0.034   0.0% |
  XC 3D grid:                        0.062     0.062   0.0% |
  vbar:                              0.002     0.002   0.0% |
P tci:                               0.602     0.602   0.0% |
SCF-cycle:                        2342.543     0.045   0.0% |
 Density:                          258.415     0.001   0.0% |
  Atomic density matrices:           0.083     0.083   0.0% |
  Mix:                              10.057    10.057   0.4% |
  Multipole moments:                 0.007     0.007   0.0% |
  Normalize:                         0.002     0.002   0.0% |
  Pseudo density:                  248.265     0.018   0.0% |
   Calculate density matrix:         5.236     5.236   0.2% |
   Construct density:              242.897   242.897  10.4% |---|
   Symmetrize density:               0.114     0.114   0.0% |
 Hamiltonian:                       10.228     0.003   0.0% |
  Atomic:                            2.282     0.031   0.0% |
   XC Correction:                    2.251     2.251   0.1% |
  Calculate atomic Hamiltonians:     0.239     0.239   0.0% |
  Communicate:                       0.000     0.000   0.0% |
  Hartree integrate/restrict:        0.984     0.984   0.0% |
  Poisson:                           3.911     0.198   0.0% |
   Communicate from 1D:              0.597     0.597   0.0% |
   Communicate from 2D:              0.543     0.543   0.0% |
   Communicate to 1D:                0.501     0.501   0.0% |
   Communicate to 2D:                0.658     0.658   0.0% |
   FFT 1D:                           0.538     0.538   0.0% |
   FFT 2D:                           0.875     0.875   0.0% |
  XC 3D grid:                        2.146     2.146   0.1% |
  vbar:                              0.664     0.664   0.0% |
 LCAO eigensolver:                2073.855     0.050   0.0% |
  Calculate projections:             6.449     6.449   0.3% |
  DenseAtomicCorrection:            34.367    34.367   1.5% ||
  Distribute overlap matrix:         0.030     0.030   0.0% |
  Orbital Layouts:                1966.562  1966.562  83.8% |---------------------------------|
  Potential matrix:                 61.359    61.359   2.6% ||
  Sum over cells:                    5.037     5.037   0.2% |
ST tci:                              0.297     0.297   0.0% |
Set symmetry:                        0.001     0.001   0.0% |
TCI: Evaluate splines:               0.696     0.696   0.0% |
mktci:                               0.007     0.007   0.0% |
Other:                               1.071     1.071   0.0% |
-----------------------------------------------------------
Total:                                      2345.716 100.0%

Memory usage: 1.29 GiB
Date: Mon Feb 16 13:19:11 2026
