
  ___ ___ ___ _ _ _  
 |   |   |_  | | | | 
 | | | | | . | | | | 
 |__ |  _|___|_____|  25.7.0
 |___|_|             

User:   ubuntu@third-test
Date:   Tue Feb 17 06:11:57 2026
Arch:   x86_64
Pid:    2718679
CWD:    /mnt/vdd1/work/cemea/fairchem/src/fairchem/applications/ocx/mo_h_adsorption_workflow
Python: 3.10.16
gpaw:   /home/ubuntu/.pyenv/versions/cemea-env/lib/python3.10/site-packages/gpaw
_gpaw:  /home/ubuntu/.pyenv/versions/cemea-env/lib/python3.10/site-packages/
        _gpaw.cpython-310-x86_64-linux-gnu.so
ase:    /home/ubuntu/.pyenv/versions/cemea-env/lib/python3.10/site-packages/ase (version 3.27.0)
numpy:  /home/ubuntu/.pyenv/versions/cemea-env/lib/python3.10/site-packages/numpy (version 2.2.6)
scipy:  /home/ubuntu/.pyenv/versions/cemea-env/lib/python3.10/site-packages/scipy (version 1.15.3)
libxc:  2.x.y
units:  Angstrom and eV
cores: 1
OpenMP: False
OMP_NUM_THREADS: 1

Input parameters:
  basis: dzp
  convergence: {density: 0.0001,
                eigenstates: 1e-05,
                energy: 1e-05}
  kpts: [4 4 1]
  mode: lcao

System changes: positions, numbers, cell, pbc, initial_charges, initial_magmoms 

Initialize ...

species:
  Mo:
    name: Molybdenum
    id: ac24daaf086600a00ce6d19a74574df1
    Z: 42.0
    valence: 14
    core: 28
    charge: 0.0
    file: /home/ubuntu/.pyenv/versions/cemea-env/lib/python3.10/site-packages/gpaw_data/setups/Mo.LDA.gz
    compensation charges: {type: gauss,
                           rc: 0.38,
                           lmax: 2}
    cutoffs: {filter: 2.16,
              core: 1.42}
    projectors:
      #              energy  rcut
      - 4s(2.00)   -64.384   1.238
      - 5s(1.00)    -4.319   1.238
      - 4p(6.00)   -38.595   1.296
      - 5p(0.00)    -1.161   1.296
      - 4d(5.00)    -3.933   1.296
      -  d          23.278   1.296
  
    # LCAO basis set for Mo:
    #   Name: dzp
    #   File: /home/ubuntu/.pyenv/versions/cemea-env/lib/python3.10/site-packages/gpaw_data/setups/Mo.dzp.basis.gz
    #   Number of radial functions: 11
    #   Number of spherical harmonics: 29
    #     l=0, rc=3.5469 Bohr: 4s-sz confined orbital
    #     l=0, rc=10.0469 Bohr: 5s-sz confined orbital
    #     l=1, rc=4.0781 Bohr: 4p-sz confined orbital
    #     l=1, rc=14.0938 Bohr: 5p-sz confined orbital
    #     l=2, rc=7.2031 Bohr: 4d-sz confined orbital
    #     l=0, rc=2.1250 Bohr: 4s-dz split-valence wave
    #     l=0, rc=6.1250 Bohr: 5s-dz split-valence wave
    #     l=1, rc=2.5469 Bohr: 4p-dz split-valence wave
    #     l=1, rc=8.7656 Bohr: 5p-dz split-valence wave
    #     l=2, rc=4.2344 Bohr: 4d-dz split-valence wave
    #     l=1, rc=10.0469 Bohr: p-type Gaussian polarization
    #   Number of RI-basis functions 0

  Ir:
    name: Iridium
    id: ca472fc5a58bba06e8299391bae24b72
    Z: 77.0
    valence: 15
    core: 62
    charge: 0.0
    file: /home/ubuntu/.pyenv/versions/cemea-env/lib/python3.10/site-packages/gpaw_data/setups/Ir.LDA.gz
    compensation charges: {type: gauss,
                           rc: 0.40,
                           lmax: 2}
    cutoffs: {filter: 2.40,
              core: 2.36}
    projectors:
      #              energy  rcut
      - 6s(2.00)    -6.559   1.296
      - 5p(6.00)   -54.966   1.328
      - 6p(0.00)    -1.355   1.328
      - 5d(7.00)    -7.377   1.286
      -  s          20.652   1.296
      -  d          19.835   1.286
  
    # LCAO basis set for Ir:
    #   Name: dzp
    #   File: /home/ubuntu/.pyenv/versions/cemea-env/lib/python3.10/site-packages/gpaw_data/setups/Ir.dzp.basis.gz
    #   Number of radial functions: 9
    #   Number of spherical harmonics: 27
    #     l=0, rc=8.4062 Bohr: 6s-sz confined orbital
    #     l=1, rc=3.6406 Bohr: 5p-sz confined orbital
    #     l=1, rc=12.7031 Bohr: 6p-sz confined orbital
    #     l=2, rc=6.0469 Bohr: 5d-sz confined orbital
    #     l=0, rc=4.9844 Bohr: 6s-dz split-valence wave
    #     l=1, rc=2.4062 Bohr: 5p-dz split-valence wave
    #     l=1, rc=7.7969 Bohr: 6p-dz split-valence wave
    #     l=2, rc=3.5938 Bohr: 5d-dz split-valence wave
    #     l=1, rc=8.4062 Bohr: p-type Gaussian polarization
    #   Number of RI-basis functions 0

  N:
    name: Nitrogen
    id: c467cdfa1b75f62c8f7a0469921b1cfb
    Z: 7.0
    valence: 5
    core: 2
    charge: 0.0
    file: /home/ubuntu/.pyenv/versions/cemea-env/lib/python3.10/site-packages/gpaw_data/setups/N.LDA.gz
    compensation charges: {type: gauss,
                           rc: 0.18,
                           lmax: 2}
    cutoffs: {filter: 1.11,
              core: 0.96}
    projectors:
      #              energy  rcut
      - 2s(2.00)   -18.420   0.603
      - 2p(3.00)    -7.237   0.529
      -  s           8.791   0.603
      -  p          19.974   0.529
      -  d           0.000   0.577
  
    # LCAO basis set for N:
    #   Name: dzp
    #   File: /home/ubuntu/.pyenv/versions/cemea-env/lib/python3.10/site-packages/gpaw_data/setups/N.dzp.basis.gz
    #   Number of radial functions: 5
    #   Number of spherical harmonics: 13
    #     l=0, rc=4.8594 Bohr: 2s-sz confined orbital
    #     l=1, rc=6.0625 Bohr: 2p-sz confined orbital
    #     l=0, rc=2.6094 Bohr: 2s-dz split-valence wave
    #     l=1, rc=3.2656 Bohr: 2p-dz split-valence wave
    #     l=2, rc=6.0625 Bohr: d-type Gaussian polarization
    #   Number of RI-basis functions 0

  H:
    name: Hydrogen
    id: 4766778ce56282eaa64abeb28b7c1de3
    Z: 1.0
    valence: 1
    core: 0
    charge: 0.0
    file: /home/ubuntu/.pyenv/versions/cemea-env/lib/python3.10/site-packages/gpaw_data/setups/H.LDA.gz
    compensation charges: {type: gauss,
                           rc: 0.15,
                           lmax: 2}
    cutoffs: {filter: 0.85,
              core: 0.53}
    projectors:
      #              energy  rcut
      - 1s(1.00)    -6.353   0.476
      -  s          20.858   0.476
      -  p           0.000   0.476
  
    # LCAO basis set for H:
    #   Name: dzp
    #   File: /home/ubuntu/.pyenv/versions/cemea-env/lib/python3.10/site-packages/gpaw_data/setups/H.dzp.basis.gz
    #   Number of radial functions: 3
    #   Number of spherical harmonics: 5
    #     l=0, rc=6.4219 Bohr: 1s-sz confined orbital
    #     l=0, rc=3.6094 Bohr: 1s-dz split-valence wave
    #     l=1, rc=6.4219 Bohr: p-type Gaussian polarization
    #   Number of RI-basis functions 0

Reference energy: -1260246.555958  # eV

Spin-paired calculation

Convergence criteria:
 Maximum [total energy] change in last 3 cyles: 1e-05 eV / valence electron
 Maximum integral of absolute [dens]ity change: 0.0001 electrons / valence electron
 Maximum integral of absolute [eigenst]ate change: 1e-05 eV^2 / valence electron
 Maximum number of scf [iter]ations: 333
 (Square brackets indicate name in SCF output, whereas a 'c' in
 the SCF output indicates the quantity has converged.)

Symmetries present (total): 2

  ( 1  0  0)  ( 0  1  0)
  ( 0  1  0)  ( 1  0  0)
  ( 0  0  1)  ( 0  0  1)

16 k-points: 4 x 4 x 1 Monkhorst-Pack grid
6 k-points in the irreducible part of the Brillouin zone
       k-points in crystal coordinates                weights
   0:     0.12500000   -0.12500000    0.00000000          2/16
   1:     0.12500000    0.12500000    0.00000000          2/16
   2:     0.37500000   -0.37500000    0.00000000          2/16
   3:     0.37500000   -0.12500000    0.00000000          4/16
   4:     0.37500000    0.12500000    0.00000000          4/16
   5:     0.37500000    0.37500000    0.00000000          2/16

Wave functions: LCAO
  Diagonalizer: Serial LAPACK
  Atomic Correction: dense with blas
  Data-type: complex
 

Occupation numbers: Fermi-Dirac:
  width: 0.1000  # eV
 

Eigensolver
   LCAO using direct dense diagonalizer 

Densities:
  Coarse grid: 40*40*92 grid
  Fine grid: 80*80*184 grid
  Total Charge: 0.000000 

Density mixing:
  Method: separate
  Backend: pulay
  Linear mixing parameter: 0.05
  old densities: 5
  Damping of long wavelength oscillations: 50 

Hamiltonian:
  XC and Coulomb potentials evaluated on a 80*80*184 grid
  Using the LDA Exchange-Correlation functional
  Interpolation: tri-quintic (5. degree polynomial)
  Poisson solver: FastPoissonSolver using
    Stencil: 6*3+1=19 point O(h^6) finite-difference Laplacian
    FFT axes: [np.int64(0), np.int64(1), np.int64(2)]
    FST axes: []
 

Memory estimate:
  Process memory now: 1340.54 MiB
  Calculator: 199.13 MiB
    Density: 80.80 MiB
      Arrays: 29.20 MiB
      Localized functions: 40.37 MiB
      Mixer: 11.23 MiB
    Hamiltonian: 21.80 MiB
      Arrays: 19.09 MiB
      XC: 0.00 MiB
      Poisson: 0.00 MiB
      vbar: 2.71 MiB
    Wavefunctions: 96.52 MiB
      C [qnM]: 2.23 MiB
      S, T [2 x qmm]: 15.08 MiB
      P [aqMi]: 0.33 MiB
      BasisFunctions: 78.87 MiB
      Eigensolver: 0.00 MiB

Total number of cores used: 1

Number of atoms: 13
Number of atomic orbitals: 287
Number of bands in calculation: 85
Number of valence electrons: 134
Bands to converge: occupied

... initialized

Initializing position-dependent things.

Density initialized from atomic densities
      .-------------------.  
     /|                   |  
    / |                   |  
   /  |                   |  
  /   |                   |  
 *    |                   |  
 |    |                   |  
 |    |                   |  
 |    |                   |  
 |    |                   |  
 |    |                   |  
 |    |   MH        Mo    |  
 |    |                   |  
 |    |Ir        Mo       |  
 |    |   N         N     |  
 |  Mo|       Mo          |  
 |    |N         N        |  
 Mo   |    Mo             |  
 |    |                   |  
 |    |                   |  
 |    |                   |  
 |    |                   |  
 |    .-------------------.  
 |   /                   /   
 |  /                   /    
 | /                   /     
 |/                   /      
 *-------------------*       

Atomic positions and initial magnetic moments

Positions:
   0 Mo     0.000000    0.000000    8.000000    ( 0.0000,  0.0000,  0.0000)
   1 Ir     2.080000    2.080000   10.080000    ( 0.0000,  0.0000,  0.0000)
   2 N      2.080000    2.080000    8.000000    ( 0.0000,  0.0000,  0.0000)
   3 Mo     0.000000    4.160000    8.000000    ( 0.0000,  0.0000,  0.0000)
   4 Mo     2.080000    6.240000   10.080000    ( 0.0000,  0.0000,  0.0000)
   5 N      2.080000    6.240000    8.000000    ( 0.0000,  0.0000,  0.0000)
   6 Mo     4.160000    0.000000    8.000000    ( 0.0000,  0.0000,  0.0000)
   7 Mo     6.240000    2.080000   10.080000    ( 0.0000,  0.0000,  0.0000)
   8 N      6.240000    2.080000    8.000000    ( 0.0000,  0.0000,  0.0000)
   9 Mo     4.160000    4.160000    8.000000    ( 0.0000,  0.0000,  0.0000)
  10 Mo     6.240000    6.240000   10.080000    ( 0.0000,  0.0000,  0.0000)
  11 N      6.240000    6.240000    8.000000    ( 0.0000,  0.0000,  0.0000)
  12 H      3.466667    3.466667   11.580000    ( 0.0000,  0.0000,  0.0000)

Unit cell:
           periodic     x           y           z      points  spacing
  1. axis:    yes    8.320000    0.000000    0.000000    40     0.2080
  2. axis:    yes    0.000000    8.320000    0.000000    40     0.2080
  3. axis:    yes    0.000000    0.000000   18.080000    92     0.1965

  Lengths:   8.320000   8.320000  18.080000
  Angles:   90.000000  90.000000  90.000000

Effective grid spacing dv^(1/3) = 0.2041

     iter     time        total  log10-change:
                         energy   eigst   dens
iter:   1 06:13:17   -95.878634        c
iter:   2 06:14:47   -86.285061        c -0.87
iter:   3 06:16:09   -82.930325        c -1.00
iter:   4 06:17:38   -80.088881        c -1.03
iter:   5 06:19:03   -80.111017        c -1.17
iter:   6 06:20:10   -78.840893        c -1.16
iter:   7 06:21:24   -77.664189        c -1.24
iter:   8 06:22:41   -77.031789        c -1.35
iter:   9 06:24:03   -76.954593        c -1.45
iter:  10 06:25:25   -76.591675        c -1.46
iter:  11 06:26:45   -76.530981        c -1.70
iter:  12 06:28:12   -76.517236        c -1.81
iter:  13 06:29:26   -76.473882        c -1.91
iter:  14 06:30:37   -76.476488        c -2.02
iter:  15 06:32:00   -76.460883        c -2.01
iter:  16 06:33:25   -76.449695        c -2.07
iter:  17 06:34:52   -76.441559        c -2.17
iter:  18 06:36:14   -76.436642        c -2.25
iter:  19 06:37:40   -76.434991        c -2.31
iter:  20 06:39:11   -76.429133        c -2.33
iter:  21 06:40:31   -76.426518        c -2.43
iter:  22 06:41:52   -76.424875        c -2.56
iter:  23 06:43:18   -76.424526        c -2.59
iter:  24 06:44:38   -76.423077        c -2.63
iter:  25 06:45:57   -76.423822        c -2.76
iter:  26 06:47:19   -76.422689c       c -2.82
iter:  27 06:48:39   -76.423125c       c -2.95
iter:  28 06:49:59   -76.422840c       c -3.01
iter:  29 06:51:29   -76.423393c       c -3.03
iter:  30 06:52:47   -76.422991c       c -3.04
iter:  31 06:54:16   -76.423007c       c -3.12
iter:  32 06:55:39   -76.422808c       c -3.17
iter:  33 06:57:05   -76.422888c       c -3.18
iter:  34 06:58:32   -76.422605c       c -3.29
iter:  35 06:59:57   -76.422567c       c -3.34
iter:  36 07:01:25   -76.422448c       c -3.44
iter:  37 07:02:49   -76.422356c       c -3.40
iter:  38 07:04:16   -76.422238c       c -3.57
iter:  39 07:05:45   -76.422246c       c -3.67
iter:  40 07:07:10   -76.422166c       c -3.80
iter:  41 07:08:34   -76.422151c       c -3.86
iter:  42 07:10:01   -76.422091c       c -3.84
iter:  43 07:11:18   -76.422088c       c -3.88
iter:  44 07:12:40   -76.422068c       c -3.94
iter:  45 07:13:48   -76.422091c       c -3.96
iter:  46 07:15:07   -76.422041c       c -3.97
iter:  47 07:16:37   -76.422075c       c -4.02c

Converged after 47 iterations.

Dipole moment: (-5.018073, -5.018073, 0.076371) |e|*Ang

Energy contributions relative to reference atoms: (reference = -1260246.555958)

Kinetic:       -194.296794
Potential:     +132.788249
External:        +0.000000
XC:             -16.261903
Entropy (-ST):   -1.382943
Local:           +2.039844
SIC:             +0.000000
--------------------------
Free energy:    -77.113547
Extrapolated:   -76.422075

Showing only first 2 kpts
 Kpt  Band  Eigenvalues  Occupancy
  0    65     -2.20064    0.98586
  0    66     -2.18688    0.91729
  0    67     -2.17225    0.84517
  0    68     -2.15763    0.77474

  1    65     -2.20220    0.99367
  1    66     -2.19388    0.95212
  1    67     -2.17294    0.84857
  1    68     -2.16368    0.80365


Fermi level: -2.20346

No gap
No difference between direct/indirect transitions
Timing:                              incl.     excl.
-----------------------------------------------------------
Basic WFS set positions:             0.000     0.000   0.0% |
Basis functions set positions:       0.083     0.083   0.0% |
LCAO WFS Initialize:                 0.382     0.057   0.0% |
 Hamiltonian:                        0.326     0.000   0.0% |
  Atomic:                            0.081     0.001   0.0% |
   XC Correction:                    0.080     0.080   0.0% |
  Calculate atomic Hamiltonians:     0.008     0.008   0.0% |
  Communicate:                       0.000     0.000   0.0% |
  Hartree integrate/restrict:        0.031     0.031   0.0% |
  Initialize Hamiltonian:            0.001     0.001   0.0% |
  Poisson:                           0.128     0.005   0.0% |
   Communicate from 1D:              0.019     0.019   0.0% |
   Communicate from 2D:              0.017     0.017   0.0% |
   Communicate to 1D:                0.021     0.021   0.0% |
   Communicate to 2D:                0.022     0.022   0.0% |
   FFT 1D:                           0.018     0.018   0.0% |
   FFT 2D:                           0.027     0.027   0.0% |
  XC 3D grid:                        0.059     0.059   0.0% |
  vbar:                              0.018     0.018   0.0% |
P tci:                               0.483     0.483   0.0% |
SCF-cycle:                        3876.272     0.058   0.0% |
 Density:                          430.547     0.001   0.0% |
  Atomic density matrices:           0.155     0.155   0.0% |
  Mix:                              16.512    16.512   0.4% |
  Multipole moments:                 0.012     0.012   0.0% |
  Normalize:                         0.004     0.004   0.0% |
  Pseudo density:                  413.863     0.031   0.0% |
   Calculate density matrix:         8.896     8.896   0.2% |
   Construct density:              404.757   404.757  10.4% |---|
   Symmetrize density:               0.179     0.179   0.0% |
 Hamiltonian:                       16.484     0.004   0.0% |
  Atomic:                            3.838     0.052   0.0% |
   XC Correction:                    3.785     3.785   0.1% |
  Calculate atomic Hamiltonians:     0.400     0.400   0.0% |
  Communicate:                       0.000     0.000   0.0% |
  Hartree integrate/restrict:        1.704     1.704   0.0% |
  Poisson:                           6.217     0.312   0.0% |
   Communicate from 1D:              0.947     0.947   0.0% |
   Communicate from 2D:              0.858     0.858   0.0% |
   Communicate to 1D:                0.769     0.769   0.0% |
   Communicate to 2D:                1.035     1.035   0.0% |
   FFT 1D:                           0.873     0.873   0.0% |
   FFT 2D:                           1.423     1.423   0.0% |
  XC 3D grid:                        3.440     3.440   0.1% |
  vbar:                              0.881     0.881   0.0% |
 LCAO eigensolver:                3429.183     0.087   0.0% |
  Calculate projections:            11.691    11.691   0.3% |
  DenseAtomicCorrection:            89.448    89.448   2.3% ||
  Distribute overlap matrix:         0.052     0.052   0.0% |
  Orbital Layouts:                3221.514  3221.514  83.0% |--------------------------------|
  Potential matrix:                 98.521    98.521   2.5% ||
  Sum over cells:                    7.870     7.870   0.2% |
ST tci:                              0.300     0.300   0.0% |
Set symmetry:                        0.001     0.001   0.0% |
TCI: Evaluate splines:               0.818     0.818   0.0% |
mktci:                               0.006     0.006   0.0% |
Other:                               1.701     1.701   0.0% |
-----------------------------------------------------------
Total:                                      3880.047 100.0%

Memory usage: 1.31 GiB
Date: Tue Feb 17 07:16:37 2026
