
  ___ ___ ___ _ _ _  
 |   |   |_  | | | | 
 | | | | | . | | | | 
 |__ |  _|___|_____|  25.7.0
 |___|_|             

User:   ubuntu@third-test
Date:   Thu Feb 19 01:41:02 2026
Arch:   x86_64
Pid:    2718679
CWD:    /mnt/vdd1/work/cemea/fairchem/src/fairchem/applications/ocx/mo_h_adsorption_workflow
Python: 3.10.16
gpaw:   /home/ubuntu/.pyenv/versions/cemea-env/lib/python3.10/site-packages/gpaw
_gpaw:  /home/ubuntu/.pyenv/versions/cemea-env/lib/python3.10/site-packages/
        _gpaw.cpython-310-x86_64-linux-gnu.so
ase:    /home/ubuntu/.pyenv/versions/cemea-env/lib/python3.10/site-packages/ase (version 3.27.0)
numpy:  /home/ubuntu/.pyenv/versions/cemea-env/lib/python3.10/site-packages/numpy (version 2.2.6)
scipy:  /home/ubuntu/.pyenv/versions/cemea-env/lib/python3.10/site-packages/scipy (version 1.15.3)
libxc:  2.x.y
units:  Angstrom and eV
cores: 1
OpenMP: False
OMP_NUM_THREADS: 1

Input parameters:
  basis: dzp
  convergence: {density: 0.0001,
                eigenstates: 1e-05,
                energy: 1e-05}
  kpts: [4 4 1]
  mode: lcao

System changes: positions, numbers, cell, pbc, initial_charges, initial_magmoms 

Initialize ...

species:
  Mo:
    name: Molybdenum
    id: ac24daaf086600a00ce6d19a74574df1
    Z: 42.0
    valence: 14
    core: 28
    charge: 0.0
    file: /home/ubuntu/.pyenv/versions/cemea-env/lib/python3.10/site-packages/gpaw_data/setups/Mo.LDA.gz
    compensation charges: {type: gauss,
                           rc: 0.38,
                           lmax: 2}
    cutoffs: {filter: 2.16,
              core: 1.42}
    projectors:
      #              energy  rcut
      - 4s(2.00)   -64.384   1.238
      - 5s(1.00)    -4.319   1.238
      - 4p(6.00)   -38.595   1.296
      - 5p(0.00)    -1.161   1.296
      - 4d(5.00)    -3.933   1.296
      -  d          23.278   1.296
  
    # LCAO basis set for Mo:
    #   Name: dzp
    #   File: /home/ubuntu/.pyenv/versions/cemea-env/lib/python3.10/site-packages/gpaw_data/setups/Mo.dzp.basis.gz
    #   Number of radial functions: 11
    #   Number of spherical harmonics: 29
    #     l=0, rc=3.5469 Bohr: 4s-sz confined orbital
    #     l=0, rc=10.0469 Bohr: 5s-sz confined orbital
    #     l=1, rc=4.0781 Bohr: 4p-sz confined orbital
    #     l=1, rc=14.0938 Bohr: 5p-sz confined orbital
    #     l=2, rc=7.2031 Bohr: 4d-sz confined orbital
    #     l=0, rc=2.1250 Bohr: 4s-dz split-valence wave
    #     l=0, rc=6.1250 Bohr: 5s-dz split-valence wave
    #     l=1, rc=2.5469 Bohr: 4p-dz split-valence wave
    #     l=1, rc=8.7656 Bohr: 5p-dz split-valence wave
    #     l=2, rc=4.2344 Bohr: 4d-dz split-valence wave
    #     l=1, rc=10.0469 Bohr: p-type Gaussian polarization
    #   Number of RI-basis functions 0

  S:
    name: Sulfur
    id: a5eb49d7597a2879c13719b04c71318f
    Z: 16.0
    valence: 6
    core: 10
    charge: 0.0
    file: /home/ubuntu/.pyenv/versions/cemea-env/lib/python3.10/site-packages/gpaw_data/setups/S.LDA.gz
    compensation charges: {type: gauss,
                           rc: 0.24,
                           lmax: 2}
    cutoffs: {filter: 1.77,
              core: 1.66}
    projectors:
      #              energy  rcut
      - 3s(2.00)   -17.278   0.974
      - 3p(4.00)    -7.106   0.979
      -  s           9.933   0.974
      -  p          20.105   0.979
      -  d           0.000   0.900
  
    # LCAO basis set for S:
    #   Name: dzp
    #   File: /home/ubuntu/.pyenv/versions/cemea-env/lib/python3.10/site-packages/gpaw_data/setups/S.dzp.basis.gz
    #   Number of radial functions: 5
    #   Number of spherical harmonics: 13
    #     l=0, rc=5.5156 Bohr: 3s-sz confined orbital
    #     l=1, rc=6.9375 Bohr: 3p-sz confined orbital
    #     l=0, rc=3.0469 Bohr: 3s-dz split-valence wave
    #     l=1, rc=3.9375 Bohr: 3p-dz split-valence wave
    #     l=2, rc=6.9375 Bohr: d-type Gaussian polarization
    #   Number of RI-basis functions 0

Reference energy: -2106703.694791  # eV

Spin-paired calculation

Convergence criteria:
 Maximum [total energy] change in last 3 cyles: 1e-05 eV / valence electron
 Maximum integral of absolute [dens]ity change: 0.0001 electrons / valence electron
 Maximum integral of absolute [eigenst]ate change: 1e-05 eV^2 / valence electron
 Maximum number of scf [iter]ations: 333
 (Square brackets indicate name in SCF output, whereas a 'c' in
 the SCF output indicates the quantity has converged.)

Symmetries present (total): 12

  ( 1  1  0)  ( 1  1  0)  ( 1  0  0)  ( 1  0  0)  ( 0  1  0)  ( 0  1  0)
  ( 0 -1  0)  (-1  0  0)  ( 0  1  0)  (-1 -1  0)  ( 1  0  0)  (-1 -1  0)
  ( 0  0  1)  ( 0  0 -1)  ( 0  0  1)  ( 0  0 -1)  ( 0  0 -1)  ( 0  0  1)

  ( 0 -1  0)  ( 0 -1  0)  (-1  0  0)  (-1  0  0)  (-1 -1  0)  (-1 -1  0)
  ( 1  1  0)  (-1  0  0)  ( 1  1  0)  ( 0 -1  0)  ( 1  0  0)  ( 0  1  0)
  ( 0  0 -1)  ( 0  0  1)  ( 0  0  1)  ( 0  0 -1)  ( 0  0  1)  ( 0  0 -1)
Note: your k-points are not as symmetric as your crystal!

16 k-points: 4 x 4 x 1 Monkhorst-Pack grid
6 k-points in the irreducible part of the Brillouin zone
       k-points in crystal coordinates                weights
   0:     0.12500000   -0.12500000    0.00000000          2/16
   1:     0.12500000    0.12500000    0.00000000          2/16
   2:     0.37500000   -0.37500000    0.00000000          2/16
   3:     0.37500000   -0.12500000    0.00000000          4/16
   4:     0.37500000    0.12500000    0.00000000          4/16
   5:     0.37500000    0.37500000    0.00000000          2/16

Wave functions: LCAO
  Diagonalizer: Serial LAPACK
  Atomic Correction: dense with blas
  Data-type: complex
 

Occupation numbers: Fermi-Dirac:
  width: 0.1000  # eV
 

Eigensolver
   LCAO using direct dense diagonalizer 

Densities:
  Coarse grid: 56*56*116 grid
  Fine grid: 112*112*232 grid
  Total Charge: 0.000000 

Density mixing:
  Method: separate
  Backend: pulay
  Linear mixing parameter: 0.05
  old densities: 5
  Damping of long wavelength oscillations: 50 

Hamiltonian:
  XC and Coulomb potentials evaluated on a 112*112*232 grid
  Using the LDA Exchange-Correlation functional
  Interpolation: tri-quintic (5. degree polynomial)
  Poisson solver: FastPoissonSolver using
    Stencil: 8*3+1=25 point O(h^6) finite-difference Laplacian
    FFT axes: [np.int64(0), np.int64(1), np.int64(2)]
    FST axes: []
 

Memory estimate:
  Process memory now: 1685.06 MiB
  Calculator: 663.14 MiB
    Density: 237.45 MiB
      Arrays: 72.16 MiB
      Localized functions: 137.54 MiB
      Mixer: 27.75 MiB
    Hamiltonian: 57.11 MiB
      Arrays: 47.18 MiB
      XC: 0.00 MiB
      Poisson: 0.00 MiB
      vbar: 9.93 MiB
    Wavefunctions: 368.58 MiB
      C [qnM]: 20.46 MiB
      S, T [2 x qmm]: 141.80 MiB
      P [aqMi]: 3.54 MiB
      BasisFunctions: 202.78 MiB
      Eigensolver: 0.00 MiB

Total number of cores used: 1

Number of atoms: 48
Number of atomic orbitals: 880
Number of bands in calculation: 254
Number of valence electrons: 416
Bands to converge: occupied

... initialized

Initializing position-dependent things.

Density initialized from atomic densities
                                                              
                                                              
                                                              
                                                              
              S      S       S       S                        
                                                              
                S       S      S       S                      
            Mo    S Mo    S Mo    S Mo   S                    
                 S       S       S      S                     
               Mo   S Mo    S Mo    S Mo    S                 
                 MoS     MoS    Mo S    Mo S                  
                                                              
                   MoS     MoS     MoS    Mo S                
                                                              
                       S       S       S       S              
                                                              
                                                              
                                                              
                                                              

Atomic positions and initial magnetic moments

Positions:
   0 Mo     0.000000    0.000000   11.475400    ( 0.0000,  0.0000,  0.0000)
   1 S     -0.000000    1.824427   12.950800    ( 0.0000,  0.0000,  0.0000)
   2 S      1.580000    0.912213   10.000000    ( 0.0000,  0.0000,  0.0000)
   3 Mo    -1.580000    2.736640   11.475400    ( 0.0000,  0.0000,  0.0000)
   4 S     -1.580000    4.561067   12.950800    ( 0.0000,  0.0000,  0.0000)
   5 S     -0.000000    3.648854   10.000000    ( 0.0000,  0.0000,  0.0000)
   6 Mo    -3.160000    5.473281   11.475400    ( 0.0000,  0.0000,  0.0000)
   7 S     -3.160000    7.297707   12.950800    ( 0.0000,  0.0000,  0.0000)
   8 S     -1.580000    6.385494   10.000000    ( 0.0000,  0.0000,  0.0000)
   9 Mo    -4.740000    8.209921   11.475400    ( 0.0000,  0.0000,  0.0000)
  10 S     -4.740000   10.034348   12.950800    ( 0.0000,  0.0000,  0.0000)
  11 S     -3.160000    9.122134   10.000000    ( 0.0000,  0.0000,  0.0000)
  12 Mo     3.160000    0.000000   11.475400    ( 0.0000,  0.0000,  0.0000)
  13 S      3.160000    1.824427   12.950800    ( 0.0000,  0.0000,  0.0000)
  14 S      4.740000    0.912213   10.000000    ( 0.0000,  0.0000,  0.0000)
  15 Mo     1.580000    2.736640   11.475400    ( 0.0000,  0.0000,  0.0000)
  16 S      1.580000    4.561067   12.950800    ( 0.0000,  0.0000,  0.0000)
  17 S      3.160000    3.648854   10.000000    ( 0.0000,  0.0000,  0.0000)
  18 Mo     0.000000    5.473281   11.475400    ( 0.0000,  0.0000,  0.0000)
  19 S     -0.000000    7.297707   12.950800    ( 0.0000,  0.0000,  0.0000)
  20 S      1.580000    6.385494   10.000000    ( 0.0000,  0.0000,  0.0000)
  21 Mo    -1.580000    8.209921   11.475400    ( 0.0000,  0.0000,  0.0000)
  22 S     -1.580000   10.034348   12.950800    ( 0.0000,  0.0000,  0.0000)
  23 S     -0.000000    9.122134   10.000000    ( 0.0000,  0.0000,  0.0000)
  24 Mo     6.320000    0.000000   11.475400    ( 0.0000,  0.0000,  0.0000)
  25 S      6.320000    1.824427   12.950800    ( 0.0000,  0.0000,  0.0000)
  26 S      7.900000    0.912213   10.000000    ( 0.0000,  0.0000,  0.0000)
  27 Mo     4.740000    2.736640   11.475400    ( 0.0000,  0.0000,  0.0000)
  28 S      4.740000    4.561067   12.950800    ( 0.0000,  0.0000,  0.0000)
  29 S      6.320000    3.648854   10.000000    ( 0.0000,  0.0000,  0.0000)
  30 Mo     3.160000    5.473281   11.475400    ( 0.0000,  0.0000,  0.0000)
  31 S      3.160000    7.297707   12.950800    ( 0.0000,  0.0000,  0.0000)
  32 S      4.740000    6.385494   10.000000    ( 0.0000,  0.0000,  0.0000)
  33 Mo     1.580000    8.209921   11.475400    ( 0.0000,  0.0000,  0.0000)
  34 S      1.580000   10.034348   12.950800    ( 0.0000,  0.0000,  0.0000)
  35 S      3.160000    9.122134   10.000000    ( 0.0000,  0.0000,  0.0000)
  36 Mo     9.480000    0.000000   11.475400    ( 0.0000,  0.0000,  0.0000)
  37 S      9.480000    1.824427   12.950800    ( 0.0000,  0.0000,  0.0000)
  38 S     11.060000    0.912213   10.000000    ( 0.0000,  0.0000,  0.0000)
  39 Mo     7.900000    2.736640   11.475400    ( 0.0000,  0.0000,  0.0000)
  40 S      7.900000    4.561067   12.950800    ( 0.0000,  0.0000,  0.0000)
  41 S      9.480000    3.648854   10.000000    ( 0.0000,  0.0000,  0.0000)
  42 Mo     6.320000    5.473281   11.475400    ( 0.0000,  0.0000,  0.0000)
  43 S      6.320000    7.297707   12.950800    ( 0.0000,  0.0000,  0.0000)
  44 S      7.900000    6.385494   10.000000    ( 0.0000,  0.0000,  0.0000)
  45 Mo     4.740000    8.209921   11.475400    ( 0.0000,  0.0000,  0.0000)
  46 S      4.740000   10.034348   12.950800    ( 0.0000,  0.0000,  0.0000)
  47 S      6.320000    9.122134   10.000000    ( 0.0000,  0.0000,  0.0000)

Unit cell:
           periodic     x           y           z      points  spacing
  1. axis:    yes   12.640000    0.000000    0.000000    56     0.1955
  2. axis:    yes   -6.320000   10.946561    0.000000    56     0.1955
  3. axis:    yes    0.000000    0.000000   22.950800   116     0.1979

  Lengths:  12.640000  12.640000  22.950800
  Angles:   90.000000  90.000000 120.000000

Effective grid spacing dv^(1/3) = 0.2059

     iter     time        total  log10-change:
                         energy   eigst   dens
iter:   1 01:47:47  -375.255770        c
iter:   2 01:55:23  -369.908003        c -1.22
iter:   3 02:02:53  -361.945042        c -1.27
iter:   4 02:10:23  -364.328048        c -1.36
iter:   5 02:17:28  -364.072091        c -1.43
iter:   6 02:24:54  -358.255244        c -1.47
iter:   7 02:32:03  -358.117780        c -2.14
iter:   8 02:39:27  -358.196399        c -2.42
iter:   9 02:46:57  -358.094324        c -2.29
iter:  10 02:54:20  -358.094097        c -3.44
iter:  11 03:01:41  -358.094259c       c -3.56
iter:  12 03:09:13  -358.094254c       c -3.90
iter:  13 03:16:35  -358.094268c       c -3.92
iter:  14 03:24:33  -358.094268c       c -4.31c

Converged after 14 iterations.

Dipole moment: (-5.127594, -8.881253, 0.000000) |e|*Ang

Energy contributions relative to reference atoms: (reference = -2106703.694791)

Kinetic:       +419.493569
Potential:     -443.785128
External:        +0.000000
XC:            -334.102218
Entropy (-ST):   -0.611693
Local:           +0.605355
SIC:             +0.000000
--------------------------
Free energy:   -358.400114
Extrapolated:  -358.094268

Showing only first 2 kpts
 Kpt  Band  Eigenvalues  Occupancy
  0   206     -1.84721    1.78418
  0   207     -1.83348    1.75630
  0   208     -1.66007    1.11986
  0   209     -1.66005    1.11978

  1   206     -1.86145    1.81011
  1   207     -1.73568    1.46094
  1   208     -1.71569    1.37873
  1   209     -1.51757    0.46863


Fermi level: -1.63598

No gap
No difference between direct/indirect transitions
Timing:                              incl.     excl.
-----------------------------------------------------------
Basic WFS set positions:             0.007     0.007   0.0% |
Basis functions set positions:       0.222     0.222   0.0% |
LCAO WFS Initialize:                 1.062     0.177   0.0% |
 Hamiltonian:                        0.886     0.000   0.0% |
  Atomic:                            0.278     0.003   0.0% |
   XC Correction:                    0.275     0.275   0.0% |
  Calculate atomic Hamiltonians:     0.027     0.027   0.0% |
  Communicate:                       0.000     0.000   0.0% |
  Hartree integrate/restrict:        0.048     0.048   0.0% |
  Initialize Hamiltonian:            0.000     0.000   0.0% |
  Poisson:                           0.365     0.013   0.0% |
   Communicate from 1D:              0.054     0.054   0.0% |
   Communicate from 2D:              0.055     0.055   0.0% |
   Communicate to 1D:                0.045     0.045   0.0% |
   Communicate to 2D:                0.054     0.054   0.0% |
   FFT 1D:                           0.054     0.054   0.0% |
   FFT 2D:                           0.091     0.091   0.0% |
  XC 3D grid:                        0.143     0.143   0.0% |
  vbar:                              0.024     0.024   0.0% |
P tci:                               4.245     4.245   0.1% |
SCF-cycle:                        6196.000     0.068   0.0% |
 Density:                          494.433     0.000   0.0% |
  Atomic density matrices:           0.368     0.368   0.0% |
  Mix:                               4.970     4.970   0.1% |
  Multipole moments:                 0.010     0.010   0.0% |
  Normalize:                         0.003     0.003   0.0% |
  Pseudo density:                  489.082     0.017   0.0% |
   Calculate density matrix:         3.739     3.739   0.1% |
   Construct density:              484.642   484.642   7.8% |--|
   Symmetrize density:               0.684     0.684   0.0% |
 Hamiltonian:                       12.241     0.001   0.0% |
  Atomic:                            3.615     0.037   0.0% |
   XC Correction:                    3.578     3.578   0.1% |
  Calculate atomic Hamiltonians:     0.408     0.408   0.0% |
  Communicate:                       0.000     0.000   0.0% |
  Hartree integrate/restrict:        0.752     0.752   0.0% |
  Poisson:                           5.137     0.186   0.0% |
   Communicate from 1D:              0.782     0.782   0.0% |
   Communicate from 2D:              0.791     0.791   0.0% |
   Communicate to 1D:                0.601     0.601   0.0% |
   Communicate to 2D:                0.770     0.770   0.0% |
   FFT 1D:                           0.730     0.730   0.0% |
   FFT 2D:                           1.277     1.277   0.0% |
  XC 3D grid:                        2.051     2.051   0.0% |
  vbar:                              0.278     0.278   0.0% |
 LCAO eigensolver:                5689.258     0.155   0.0% |
  Calculate projections:             9.689     9.689   0.2% |
  DenseAtomicCorrection:           125.847   125.847   2.0% ||
  Distribute overlap matrix:         0.179     0.179   0.0% |
  Orbital Layouts:                5422.997  5422.997  87.3% |----------------------------------|
  Potential matrix:                125.956   125.956   2.0% ||
  Sum over cells:                    4.435     4.435   0.1% |
ST tci:                              1.105     1.105   0.0% |
Set symmetry:                        0.002     0.002   0.0% |
TCI: Evaluate splines:               0.265     0.265   0.0% |
mktci:                               0.021     0.021   0.0% |
Other:                               7.571     7.571   0.1% |
-----------------------------------------------------------
Total:                                      6210.501 100.0%

Memory usage: 1.65 GiB
Date: Thu Feb 19 03:24:33 2026
