
  ___ ___ ___ _ _ _  
 |   |   |_  | | | | 
 | | | | | . | | | | 
 |__ |  _|___|_____|  25.7.0
 |___|_|             

User:   mikei@Z790-AORUS-ELITE-AX
Date:   Tue Mar  3 13:44:41 2026
Arch:   x86_64
Pid:    89048
CWD:    /home/mikei/Dokumenty/code/cemea/ocx
Python: 3.10.16
gpaw:   /home/mikei/.pyenv/versions/cemea-env/lib/python3.10/site-packages/gpaw
_gpaw:  /home/mikei/.pyenv/versions/cemea-env/lib/python3.10/site-packages/
        _gpaw.cpython-310-x86_64-linux-gnu.so
ase:    /home/mikei/.pyenv/versions/cemea-env/lib/python3.10/site-packages/ase (version 3.27.0)
numpy:  /home/mikei/.pyenv/versions/cemea-env/lib/python3.10/site-packages/numpy (version 2.2.6)
scipy:  /home/mikei/.pyenv/versions/cemea-env/lib/python3.10/site-packages/scipy (version 1.15.3)
libxc:  2.x.y
units:  Angstrom and eV
cores: 1
OpenMP: False
OMP_NUM_THREADS: 1

Input parameters:
  basis: dzp
  convergence: {density: 0.0001,
                eigenstates: 1e-05,
                energy: 1e-05}
  kpts: [4 4 1]
  mode: lcao

System changes: positions, numbers, cell, pbc, initial_charges, initial_magmoms 

Initialize ...

species:
  Ni:
    name: Nickel
    id: 1802175e8de9ea26d9f4394ec1a7d564
    Z: 28.0
    valence: 16
    core: 12
    charge: 0.0
    file: /home/mikei/.pyenv/versions/cemea-env/lib/python3.10/site-packages/gpaw_data/setups/Ni.LDA.gz
    compensation charges: {type: gauss,
                           rc: 0.36,
                           lmax: 2}
    cutoffs: {filter: 2.14,
              core: 1.98}
    projectors:
      #              energy  rcut
      - 4s(2.00)    -5.858   1.164
      - 3p(6.00)   -71.266   1.207
      - 4p(0.00)    -1.338   1.207
      - 3d(8.00)    -9.141   1.138
      -  s          21.353   1.164
      -  d          18.071   1.138
  
    # LCAO basis set for Ni:
    #   Name: dzp
    #   File: /home/mikei/.pyenv/versions/cemea-env/lib/python3.10/site-packages/gpaw_data/setups/Ni.dzp.basis.gz
    #   Number of radial functions: 9
    #   Number of spherical harmonics: 27
    #     l=0, rc=8.5156 Bohr: 4s-sz confined orbital
    #     l=1, rc=2.9375 Bohr: 3p-sz confined orbital
    #     l=1, rc=12.4062 Bohr: 4p-sz confined orbital
    #     l=2, rc=4.6875 Bohr: 3d-sz confined orbital
    #     l=0, rc=4.9688 Bohr: 4s-dz split-valence wave
    #     l=1, rc=2.0781 Bohr: 3p-dz split-valence wave
    #     l=1, rc=7.5469 Bohr: 4p-dz split-valence wave
    #     l=2, rc=2.9375 Bohr: 3d-dz split-valence wave
    #     l=1, rc=8.5156 Bohr: p-type Gaussian polarization
    #   Number of RI-basis functions 0

  Mo:
    name: Molybdenum
    id: ac24daaf086600a00ce6d19a74574df1
    Z: 42.0
    valence: 14
    core: 28
    charge: 0.0
    file: /home/mikei/.pyenv/versions/cemea-env/lib/python3.10/site-packages/gpaw_data/setups/Mo.LDA.gz
    compensation charges: {type: gauss,
                           rc: 0.38,
                           lmax: 2}
    cutoffs: {filter: 2.16,
              core: 1.42}
    projectors:
      #              energy  rcut
      - 4s(2.00)   -64.384   1.238
      - 5s(1.00)    -4.319   1.238
      - 4p(6.00)   -38.595   1.296
      - 5p(0.00)    -1.161   1.296
      - 4d(5.00)    -3.933   1.296
      -  d          23.278   1.296
  
    # LCAO basis set for Mo:
    #   Name: dzp
    #   File: /home/mikei/.pyenv/versions/cemea-env/lib/python3.10/site-packages/gpaw_data/setups/Mo.dzp.basis.gz
    #   Number of radial functions: 11
    #   Number of spherical harmonics: 29
    #     l=0, rc=3.5469 Bohr: 4s-sz confined orbital
    #     l=0, rc=10.0469 Bohr: 5s-sz confined orbital
    #     l=1, rc=4.0781 Bohr: 4p-sz confined orbital
    #     l=1, rc=14.0938 Bohr: 5p-sz confined orbital
    #     l=2, rc=7.2031 Bohr: 4d-sz confined orbital
    #     l=0, rc=2.1250 Bohr: 4s-dz split-valence wave
    #     l=0, rc=6.1250 Bohr: 5s-dz split-valence wave
    #     l=1, rc=2.5469 Bohr: 4p-dz split-valence wave
    #     l=1, rc=8.7656 Bohr: 5p-dz split-valence wave
    #     l=2, rc=4.2344 Bohr: 4d-dz split-valence wave
    #     l=1, rc=10.0469 Bohr: p-type Gaussian polarization
    #   Number of RI-basis functions 0

  B:
    name: Boron
    id: 02e2e0e88ef95f403158802f6b0f4231
    Z: 5.0
    valence: 3
    core: 2
    charge: 0.0
    file: /home/mikei/.pyenv/versions/cemea-env/lib/python3.10/site-packages/gpaw_data/setups/B.LDA.gz
    compensation charges: {type: gauss,
                           rc: 0.20,
                           lmax: 2}
    cutoffs: {filter: 1.14,
              core: 1.42}
    projectors:
      #              energy  rcut
      - 2s(2.00)    -9.383   0.635
      - 2p(1.00)    -3.714   0.635
      -  s          17.828   0.635
      -  p          23.498   0.635
      -  d           0.000   0.635
  
    # LCAO basis set for B:
    #   Name: dzp
    #   File: /home/mikei/.pyenv/versions/cemea-env/lib/python3.10/site-packages/gpaw_data/setups/B.dzp.basis.gz
    #   Number of radial functions: 5
    #   Number of spherical harmonics: 13
    #     l=0, rc=6.6719 Bohr: 2s-sz confined orbital
    #     l=1, rc=8.2188 Bohr: 2p-sz confined orbital
    #     l=0, rc=3.7500 Bohr: 2s-dz split-valence wave
    #     l=1, rc=4.6094 Bohr: 2p-dz split-valence wave
    #     l=2, rc=8.2188 Bohr: d-type Gaussian polarization
    #   Number of RI-basis functions 0

  Pt:
    name: Platinum
    id: 5a6399afde4becbffda6f57f3efd9534
    Z: 78.0
    valence: 16
    core: 62
    charge: 0.0
    file: /home/mikei/.pyenv/versions/cemea-env/lib/python3.10/site-packages/gpaw_data/setups/Pt.LDA.gz
    compensation charges: {type: gauss,
                           rc: 0.41,
                           lmax: 2}
    cutoffs: {filter: 2.26,
              core: 2.26}
    projectors:
      #              energy  rcut
      - 6s(1.00)    -5.930   1.307
      - 5p(6.00)   -56.318   1.371
      - 6p(0.00)    -0.962   1.371
      - 5d(9.00)    -6.387   1.307
      -  s          21.281   1.307
      -  d          20.825   1.307
  
    # LCAO basis set for Pt:
    #   Name: dzp
    #   File: /home/mikei/.pyenv/versions/cemea-env/lib/python3.10/site-packages/gpaw_data/setups/Pt.dzp.basis.gz
    #   Number of radial functions: 9
    #   Number of spherical harmonics: 27
    #     l=0, rc=8.5938 Bohr: 6s-sz confined orbital
    #     l=1, rc=3.5781 Bohr: 5p-sz confined orbital
    #     l=1, rc=13.6250 Bohr: 6p-sz confined orbital
    #     l=2, rc=6.0938 Bohr: 5d-sz confined orbital
    #     l=0, rc=5.0625 Bohr: 6s-dz split-valence wave
    #     l=1, rc=2.4219 Bohr: 5p-dz split-valence wave
    #     l=1, rc=8.3281 Bohr: 6p-dz split-valence wave
    #     l=2, rc=3.6406 Bohr: 5d-dz split-valence wave
    #     l=1, rc=8.5938 Bohr: p-type Gaussian polarization
    #   Number of RI-basis functions 0

Reference energy: -3929938.156077  # eV

Spin-paired calculation

Convergence criteria:
 Maximum [total energy] change in last 3 cyles: 1e-05 eV / valence electron
 Maximum integral of absolute [dens]ity change: 0.0001 electrons / valence electron
 Maximum integral of absolute [eigenst]ate change: 1e-05 eV^2 / valence electron
 Maximum number of scf [iter]ations: 333
 (Square brackets indicate name in SCF output, whereas a 'c' in
 the SCF output indicates the quantity has converged.)

Symmetries present (total): 2

  ( 1  0  0)  ( 0  1  0)
  ( 0  1  0)  ( 1  0  0)
  ( 0  0  1)  ( 0  0  1)

16 k-points: 4 x 4 x 1 Monkhorst-Pack grid
6 k-points in the irreducible part of the Brillouin zone
       k-points in crystal coordinates                weights
   0:     0.12500000   -0.12500000    0.00000000          2/16
   1:     0.12500000    0.12500000    0.00000000          2/16
   2:     0.37500000   -0.37500000    0.00000000          2/16
   3:     0.37500000   -0.12500000    0.00000000          4/16
   4:     0.37500000    0.12500000    0.00000000          4/16
   5:     0.37500000    0.37500000    0.00000000          2/16

Wave functions: LCAO
  Diagonalizer: Serial LAPACK
  Atomic Correction: dense with blas
  Data-type: complex
 

Occupation numbers: Fermi-Dirac:
  width: 0.1000  # eV
 

Eigensolver
   LCAO using direct dense diagonalizer 

Densities:
  Coarse grid: 36*36*124 grid
  Fine grid: 72*72*248 grid
  Total Charge: 0.000000 

Density mixing:
  Method: separate
  Backend: pulay
  Linear mixing parameter: 0.05
  old densities: 5
  Damping of long wavelength oscillations: 50 

Hamiltonian:
  XC and Coulomb potentials evaluated on a 72*72*248 grid
  Using the LDA Exchange-Correlation functional
  Interpolation: tri-quintic (5. degree polynomial)
  Poisson solver: FastPoissonSolver using
    Stencil: 6*3+1=19 point O(h^6) finite-difference Laplacian
    FFT axes: [np.int64(0), np.int64(1), np.int64(2)]
    FST axes: []
 

Memory estimate:
  Process memory now: 4818.40 MiB
  Calculator: 878.15 MiB
    Density: 222.10 MiB
      Arrays: 31.88 MiB
      Localized functions: 177.96 MiB
      Mixer: 12.26 MiB
    Hamiltonian: 33.97 MiB
      Arrays: 20.84 MiB
      XC: 0.00 MiB
      Poisson: 0.00 MiB
      vbar: 13.12 MiB
    Wavefunctions: 622.09 MiB
      C [qnM]: 49.02 MiB
      S, T [2 x qmm]: 285.19 MiB
      P [aqMi]: 6.03 MiB
      BasisFunctions: 281.86 MiB
      Eigensolver: 0.00 MiB

Total number of cores used: 1

Number of atoms: 48
Number of atomic orbitals: 1248
Number of bands in calculation: 429
Number of valence electrons: 708
Bands to converge: occupied

... initialized

Initializing position-dependent things.

Density initialized from atomic densities
      .-----------------.  
     /|                 |  
    / |                 |  
   /  |                 |  
  /   |                 |  
 *    |                 |  
 |    |                 |  
 |    |                 |  
 |    |                 |  
 |    |                 |  
 |    | Pt    Pt        |  
 |    |                 |  
 |    PtB   Pt B        |  
 |    |                 |  
 |    B      B          |  
 | Mo |   Mo            |  
 |  Ni|   Ni    Ni      |  
 Mo   | Mo              |  
 | Ni | NNi   NNi   Ni  |  
 |    Ni    Ni    Ni    |  
 Ni   |Ni    Ni         |  
 |  NNi   NNi   NNi     |  
 | Ni | NNi   NNi   Ni  |  
 |    |                 |  
 Ni   NNi   NNi   Ni    |  
 |   Ni    Ni    Ni     |  
 |    |                 |  
 |    |                 |  
 |    |                 |  
 |    |                 |  
 |    |                 |  
 |    .-----------------.  
 |   /                 /   
 |  /                 /    
 | /                 /     
 |/                 /      
 *-----------------*       

Atomic positions and initial magnetic moments

Positions:
   0 Ni     1.244508    1.244508    8.000000    ( 0.0000,  0.0000,  0.0000)
   1 Ni     3.733524    1.244508    8.000000    ( 0.0000,  0.0000,  0.0000)
   2 Ni     6.222540    1.244508    8.000000    ( 0.0000,  0.0000,  0.0000)
   3 Ni     1.244508    3.733524    8.000000    ( 0.0000,  0.0000,  0.0000)
   4 Ni     3.733524    3.733524    8.000000    ( 0.0000,  0.0000,  0.0000)
   5 Ni     6.222540    3.733524    8.000000    ( 0.0000,  0.0000,  0.0000)
   6 Ni     1.244508    6.222540    8.000000    ( 0.0000,  0.0000,  0.0000)
   7 Ni     3.733524    6.222540    8.000000    ( 0.0000,  0.0000,  0.0000)
   8 Ni     6.222540    6.222540    8.000000    ( 0.0000,  0.0000,  0.0000)
   9 Ni     0.000000    0.000000    9.760000    ( 0.0000,  0.0000,  0.0000)
  10 Ni     2.489016    0.000000    9.760000    ( 0.0000,  0.0000,  0.0000)
  11 Ni     4.978032    0.000000    9.760000    ( 0.0000,  0.0000,  0.0000)
  12 Ni     0.000000    2.489016    9.760000    ( 0.0000,  0.0000,  0.0000)
  13 Ni     2.489016    2.489016    9.760000    ( 0.0000,  0.0000,  0.0000)
  14 Ni     4.978032    2.489016    9.760000    ( 0.0000,  0.0000,  0.0000)
  15 Ni     0.000000    4.978032    9.760000    ( 0.0000,  0.0000,  0.0000)
  16 Ni     2.489016    4.978032    9.760000    ( 0.0000,  0.0000,  0.0000)
  17 Ni     4.978032    4.978032    9.760000    ( 0.0000,  0.0000,  0.0000)
  18 Ni     1.244508    1.244508   11.520000    ( 0.0000,  0.0000,  0.0000)
  19 Ni     3.733524    1.244508   11.520000    ( 0.0000,  0.0000,  0.0000)
  20 Ni     6.222540    1.244508   11.520000    ( 0.0000,  0.0000,  0.0000)
  21 Ni     1.244508    3.733524   11.520000    ( 0.0000,  0.0000,  0.0000)
  22 Ni     3.733524    3.733524   11.520000    ( 0.0000,  0.0000,  0.0000)
  23 Ni     6.222540    3.733524   11.520000    ( 0.0000,  0.0000,  0.0000)
  24 Ni     1.244508    6.222540   11.520000    ( 0.0000,  0.0000,  0.0000)
  25 Ni     3.733524    6.222540   11.520000    ( 0.0000,  0.0000,  0.0000)
  26 Ni     6.222540    6.222540   11.520000    ( 0.0000,  0.0000,  0.0000)
  27 Ni     0.000000    0.000000   13.280000    ( 0.0000,  0.0000,  0.0000)
  28 Ni     2.489016    0.000000   13.280000    ( 0.0000,  0.0000,  0.0000)
  29 Ni     4.978032    0.000000   13.280000    ( 0.0000,  0.0000,  0.0000)
  30 Ni     0.000000    2.489016   13.280000    ( 0.0000,  0.0000,  0.0000)
  31 Ni     2.489016    2.489016   13.280000    ( 0.0000,  0.0000,  0.0000)
  32 Ni     4.978032    2.489016   13.280000    ( 0.0000,  0.0000,  0.0000)
  33 Ni     0.000000    4.978032   13.280000    ( 0.0000,  0.0000,  0.0000)
  34 Ni     2.489016    4.978032   13.280000    ( 0.0000,  0.0000,  0.0000)
  35 Ni     4.978032    4.978032   13.280000    ( 0.0000,  0.0000,  0.0000)
  36 Mo     0.000000    0.000000   15.480000    ( 0.0000,  0.0000,  0.0000)
  37 B      1.525000    1.525000   17.005000    ( 0.0000,  0.0000,  0.0000)
  38 Mo     0.000000    3.050000   15.480000    ( 0.0000,  0.0000,  0.0000)
  39 B      1.525000    4.575000   17.005000    ( 0.0000,  0.0000,  0.0000)
  40 Mo     3.050000    0.000000   15.480000    ( 0.0000,  0.0000,  0.0000)
  41 B      4.575000    1.525000   17.005000    ( 0.0000,  0.0000,  0.0000)
  42 Mo     3.050000    3.050000   15.480000    ( 0.0000,  0.0000,  0.0000)
  43 B      4.575000    4.575000   17.005000    ( 0.0000,  0.0000,  0.0000)
  44 Pt     1.761494    1.761494   18.805000    ( 0.0000,  0.0000,  0.0000)
  45 Pt     1.761494    4.161494   18.805000    ( 0.0000,  0.0000,  0.0000)
  46 Pt     4.161494    1.761494   18.805000    ( 0.0000,  0.0000,  0.0000)
  47 Pt     4.161494    4.161494   18.805000    ( 0.0000,  0.0000,  0.0000)

Unit cell:
           periodic     x           y           z      points  spacing
  1. axis:    yes    7.467048    0.000000    0.000000    36     0.2074
  2. axis:    yes    0.000000    7.467048    0.000000    36     0.2074
  3. axis:    yes    0.000000    0.000000   25.005000   124     0.2017

  Lengths:   7.467048   7.467048  25.005000
  Angles:   90.000000  90.000000  90.000000

Effective grid spacing dv^(1/3) = 0.2055

     iter     time        total  log10-change:
                         energy   eigst   dens
iter:   1 13:45:18  -986.934125        c
iter:   2 13:47:01 -3358.591921        c -0.95
iter:   3 13:48:48  -547.140784        c -0.44
iter:   4 13:50:30  -381.739086        c -1.24
iter:   5 13:52:18  -379.572300        c -1.49
iter:   6 13:54:05  -387.027502        c -1.55
iter:   7 13:55:43  -366.110640        c -1.44
iter:   8 13:57:37  -353.799798        c -1.67
iter:   9 14:00:03  -353.372722        c -1.73
iter:  10 14:02:02  -355.039798        c -1.78
iter:  11 14:03:41  -353.783133        c -1.71
iter:  12 14:05:05  -365.318514        c -1.76
iter:  13 14:06:58  -352.632719        c -1.70
iter:  14 14:08:25  -350.500425        c -1.87
iter:  15 14:09:39  -355.027911        c -2.02
iter:  16 14:11:35  -358.362698        c -1.86
iter:  17 14:13:13  -359.169551        c -1.76
iter:  18 14:15:16  -357.965542        c -1.81
iter:  19 14:17:41  -362.492618        c -1.96
iter:  20 14:19:06  -354.648284        c -1.75
iter:  21 14:21:10  -351.325412        c -1.99
iter:  22 14:23:29  -353.509173        c -2.04
iter:  23 14:25:22  -350.413497        c -2.00
iter:  24 14:27:24  -349.798104        c -2.22
iter:  25 14:29:39  -349.459233        c -2.36
iter:  26 14:31:35  -349.212093        c -2.38
iter:  27 14:33:28  -350.366191        c -2.62
iter:  28 14:35:35  -349.235612        c -2.35
iter:  29 14:37:16  -349.117234        c -2.52
iter:  30 14:38:43  -349.097104        c -2.81
iter:  31 14:41:06  -349.087773        c -2.74
iter:  32 14:43:05  -349.122660        c -2.94
iter:  33 14:45:08  -349.091082        c -2.75
iter:  34 14:47:13  -349.022793        c -2.86
iter:  35 14:48:44  -349.032396        c -3.12
iter:  36 14:50:54  -349.045459        c -3.08
iter:  37 14:52:09  -349.013306        c -3.03
iter:  38 14:53:57  -349.073108        c -3.30
iter:  39 14:55:22  -349.022225        c -2.93
iter:  40 14:57:01  -349.011640        c -3.22
iter:  41 14:59:46  -349.021843        c -3.44
iter:  42 15:01:33  -349.011261        c -3.12
iter:  43 15:03:18  -349.013323        c -3.36
iter:  44 15:04:41  -349.024431        c -3.38
iter:  45 15:06:42  -349.008182        c -3.26
iter:  46 15:08:33  -349.006843        c -3.71
iter:  47 15:10:28  -349.008083c       c -3.68
iter:  48 15:12:17  -349.009862c       c -3.85
iter:  49 15:14:30  -349.008711c       c -3.77
iter:  50 15:15:58  -349.007614c       c -3.85
iter:  51 15:17:40  -349.009494c       c -3.84
iter:  52 15:19:33  -349.011104c       c -3.80
iter:  53 15:21:31  -349.007843c       c -3.69
iter:  54 15:23:15  -349.007596c       c -3.97
iter:  55 15:24:58  -349.007737c       c -3.97
iter:  56 15:26:28  -349.007913c       c -3.97
iter:  57 15:27:58  -349.007641c       c -4.16c

Converged after 57 iterations.

Dipole moment: (-13.931653, -13.931653, 0.190370) |e|*Ang

Energy contributions relative to reference atoms: (reference = -3929938.156077)

Kinetic:       +128.806089
Potential:      -91.898106
External:        +0.000000
XC:            -382.309883
Entropy (-ST):   -3.669447
Local:           -1.771017
SIC:             +0.000000
--------------------------
Free energy:   -350.842364
Extrapolated:  -349.007641

Showing only first 2 kpts
 Kpt  Band  Eigenvalues  Occupancy
  0   352      0.39936    1.26239
  0   353      0.40445    1.23854
  0   354      0.41184    1.20339
  0   355      0.41682    1.17942

  1   352      0.39981    1.26030
  1   353      0.40492    1.23632
  1   354      0.41848    1.17135
  1   355      0.42089    1.15967


Fermi level: 0.45309

No gap
No difference between direct/indirect transitions
Timing:                              incl.     excl.
-----------------------------------------------------------
Basic WFS set positions:             0.001     0.001   0.0% |
Basis functions set positions:       0.180     0.180   0.0% |
LCAO WFS Initialize:                 0.486     0.125   0.0% |
 Hamiltonian:                        0.361     0.000   0.0% |
  Atomic:                            0.165     0.002   0.0% |
   XC Correction:                    0.163     0.163   0.0% |
  Calculate atomic Hamiltonians:     0.031     0.031   0.0% |
  Communicate:                       0.000     0.000   0.0% |
  Hartree integrate/restrict:        0.011     0.011   0.0% |
  Initialize Hamiltonian:            0.001     0.001   0.0% |
  Poisson:                           0.063     0.005   0.0% |
   Communicate from 1D:              0.007     0.007   0.0% |
   Communicate from 2D:              0.007     0.007   0.0% |
   Communicate to 1D:                0.005     0.005   0.0% |
   Communicate to 2D:                0.007     0.007   0.0% |
   FFT 1D:                           0.014     0.014   0.0% |
   FFT 2D:                           0.018     0.018   0.0% |
  XC 3D grid:                        0.086     0.086   0.0% |
  vbar:                              0.004     0.004   0.0% |
P tci:                               3.658     3.658   0.1% |
SCF-cycle:                        6185.427     0.133   0.0% |
 Density:                         2957.418     0.001   0.0% |
  Atomic density matrices:           0.821     0.821   0.0% |
  Mix:                               7.269     7.269   0.1% |
  Multipole moments:                 0.016     0.016   0.0% |
  Normalize:                         0.006     0.006   0.0% |
  Pseudo density:                 2949.305     0.019   0.0% |
   Calculate density matrix:         9.022     9.022   0.1% |
   Construct density:             2940.049  2940.049  47.4% |------------------|
   Symmetrize density:               0.215     0.215   0.0% |
 Hamiltonian:                       19.371     0.003   0.0% |
  Atomic:                            8.929     0.098   0.0% |
   XC Correction:                    8.831     8.831   0.1% |
  Calculate atomic Hamiltonians:     1.479     1.479   0.0% |
  Communicate:                       0.000     0.000   0.0% |
  Hartree integrate/restrict:        0.587     0.587   0.0% |
  Poisson:                           4.115     0.287   0.0% |
   Communicate from 1D:              0.470     0.470   0.0% |
   Communicate from 2D:              0.407     0.407   0.0% |
   Communicate to 1D:                0.376     0.376   0.0% |
   Communicate to 2D:                0.518     0.518   0.0% |
   FFT 1D:                           0.786     0.786   0.0% |
   FFT 2D:                           1.270     1.270   0.0% |
  XC 3D grid:                        3.678     3.678   0.1% |
  vbar:                              0.581     0.581   0.0% |
 LCAO eigensolver:                3208.505     1.111   0.0% |
  Calculate projections:            71.935    71.935   1.2% |
  DenseAtomicCorrection:           199.508   199.508   3.2% ||
  Distribute overlap matrix:         2.431     2.431   0.0% |
  Orbital Layouts:                2252.803  2252.803  36.3% |--------------|
  Potential matrix:                626.911   626.911  10.1% |---|
  Sum over cells:                   53.806    53.806   0.9% |
ST tci:                              1.828     1.828   0.0% |
Set symmetry:                        0.000     0.000   0.0% |
TCI: Evaluate splines:               0.631     0.631   0.0% |
mktci:                               0.025     0.025   0.0% |
Other:                               5.392     5.392   0.1% |
-----------------------------------------------------------
Total:                                      6197.628 100.0%

Memory usage: 4.71 GiB
Date: Tue Mar  3 15:27:58 2026
