
  ___ ___ ___ _ _ _  
 |   |   |_  | | | | 
 | | | | | . | | | | 
 |__ |  _|___|_____|  25.7.0
 |___|_|             

User:   mikei@Z790-AORUS-ELITE-AX
Date:   Tue Mar  3 15:27:58 2026
Arch:   x86_64
Pid:    89048
CWD:    /home/mikei/Dokumenty/code/cemea/ocx
Python: 3.10.16
gpaw:   /home/mikei/.pyenv/versions/cemea-env/lib/python3.10/site-packages/gpaw
_gpaw:  /home/mikei/.pyenv/versions/cemea-env/lib/python3.10/site-packages/
        _gpaw.cpython-310-x86_64-linux-gnu.so
ase:    /home/mikei/.pyenv/versions/cemea-env/lib/python3.10/site-packages/ase (version 3.27.0)
numpy:  /home/mikei/.pyenv/versions/cemea-env/lib/python3.10/site-packages/numpy (version 2.2.6)
scipy:  /home/mikei/.pyenv/versions/cemea-env/lib/python3.10/site-packages/scipy (version 1.15.3)
libxc:  2.x.y
units:  Angstrom and eV
cores: 1
OpenMP: False
OMP_NUM_THREADS: 1

Input parameters:
  basis: dzp
  convergence: {density: 0.0001,
                eigenstates: 1e-05,
                energy: 1e-05}
  kpts: [4 4 1]
  mode: lcao

System changes: positions, numbers, cell, pbc, initial_charges, initial_magmoms 

Initialize ...

species:
  Ni:
    name: Nickel
    id: 1802175e8de9ea26d9f4394ec1a7d564
    Z: 28.0
    valence: 16
    core: 12
    charge: 0.0
    file: /home/mikei/.pyenv/versions/cemea-env/lib/python3.10/site-packages/gpaw_data/setups/Ni.LDA.gz
    compensation charges: {type: gauss,
                           rc: 0.36,
                           lmax: 2}
    cutoffs: {filter: 2.14,
              core: 1.98}
    projectors:
      #              energy  rcut
      - 4s(2.00)    -5.858   1.164
      - 3p(6.00)   -71.266   1.207
      - 4p(0.00)    -1.338   1.207
      - 3d(8.00)    -9.141   1.138
      -  s          21.353   1.164
      -  d          18.071   1.138
  
    # LCAO basis set for Ni:
    #   Name: dzp
    #   File: /home/mikei/.pyenv/versions/cemea-env/lib/python3.10/site-packages/gpaw_data/setups/Ni.dzp.basis.gz
    #   Number of radial functions: 9
    #   Number of spherical harmonics: 27
    #     l=0, rc=8.5156 Bohr: 4s-sz confined orbital
    #     l=1, rc=2.9375 Bohr: 3p-sz confined orbital
    #     l=1, rc=12.4062 Bohr: 4p-sz confined orbital
    #     l=2, rc=4.6875 Bohr: 3d-sz confined orbital
    #     l=0, rc=4.9688 Bohr: 4s-dz split-valence wave
    #     l=1, rc=2.0781 Bohr: 3p-dz split-valence wave
    #     l=1, rc=7.5469 Bohr: 4p-dz split-valence wave
    #     l=2, rc=2.9375 Bohr: 3d-dz split-valence wave
    #     l=1, rc=8.5156 Bohr: p-type Gaussian polarization
    #   Number of RI-basis functions 0

  Mo:
    name: Molybdenum
    id: ac24daaf086600a00ce6d19a74574df1
    Z: 42.0
    valence: 14
    core: 28
    charge: 0.0
    file: /home/mikei/.pyenv/versions/cemea-env/lib/python3.10/site-packages/gpaw_data/setups/Mo.LDA.gz
    compensation charges: {type: gauss,
                           rc: 0.38,
                           lmax: 2}
    cutoffs: {filter: 2.16,
              core: 1.42}
    projectors:
      #              energy  rcut
      - 4s(2.00)   -64.384   1.238
      - 5s(1.00)    -4.319   1.238
      - 4p(6.00)   -38.595   1.296
      - 5p(0.00)    -1.161   1.296
      - 4d(5.00)    -3.933   1.296
      -  d          23.278   1.296
  
    # LCAO basis set for Mo:
    #   Name: dzp
    #   File: /home/mikei/.pyenv/versions/cemea-env/lib/python3.10/site-packages/gpaw_data/setups/Mo.dzp.basis.gz
    #   Number of radial functions: 11
    #   Number of spherical harmonics: 29
    #     l=0, rc=3.5469 Bohr: 4s-sz confined orbital
    #     l=0, rc=10.0469 Bohr: 5s-sz confined orbital
    #     l=1, rc=4.0781 Bohr: 4p-sz confined orbital
    #     l=1, rc=14.0938 Bohr: 5p-sz confined orbital
    #     l=2, rc=7.2031 Bohr: 4d-sz confined orbital
    #     l=0, rc=2.1250 Bohr: 4s-dz split-valence wave
    #     l=0, rc=6.1250 Bohr: 5s-dz split-valence wave
    #     l=1, rc=2.5469 Bohr: 4p-dz split-valence wave
    #     l=1, rc=8.7656 Bohr: 5p-dz split-valence wave
    #     l=2, rc=4.2344 Bohr: 4d-dz split-valence wave
    #     l=1, rc=10.0469 Bohr: p-type Gaussian polarization
    #   Number of RI-basis functions 0

  B:
    name: Boron
    id: 02e2e0e88ef95f403158802f6b0f4231
    Z: 5.0
    valence: 3
    core: 2
    charge: 0.0
    file: /home/mikei/.pyenv/versions/cemea-env/lib/python3.10/site-packages/gpaw_data/setups/B.LDA.gz
    compensation charges: {type: gauss,
                           rc: 0.20,
                           lmax: 2}
    cutoffs: {filter: 1.14,
              core: 1.42}
    projectors:
      #              energy  rcut
      - 2s(2.00)    -9.383   0.635
      - 2p(1.00)    -3.714   0.635
      -  s          17.828   0.635
      -  p          23.498   0.635
      -  d           0.000   0.635
  
    # LCAO basis set for B:
    #   Name: dzp
    #   File: /home/mikei/.pyenv/versions/cemea-env/lib/python3.10/site-packages/gpaw_data/setups/B.dzp.basis.gz
    #   Number of radial functions: 5
    #   Number of spherical harmonics: 13
    #     l=0, rc=6.6719 Bohr: 2s-sz confined orbital
    #     l=1, rc=8.2188 Bohr: 2p-sz confined orbital
    #     l=0, rc=3.7500 Bohr: 2s-dz split-valence wave
    #     l=1, rc=4.6094 Bohr: 2p-dz split-valence wave
    #     l=2, rc=8.2188 Bohr: d-type Gaussian polarization
    #   Number of RI-basis functions 0

  Pt:
    name: Platinum
    id: 5a6399afde4becbffda6f57f3efd9534
    Z: 78.0
    valence: 16
    core: 62
    charge: 0.0
    file: /home/mikei/.pyenv/versions/cemea-env/lib/python3.10/site-packages/gpaw_data/setups/Pt.LDA.gz
    compensation charges: {type: gauss,
                           rc: 0.41,
                           lmax: 2}
    cutoffs: {filter: 2.26,
              core: 2.26}
    projectors:
      #              energy  rcut
      - 6s(1.00)    -5.930   1.307
      - 5p(6.00)   -56.318   1.371
      - 6p(0.00)    -0.962   1.371
      - 5d(9.00)    -6.387   1.307
      -  s          21.281   1.307
      -  d          20.825   1.307
  
    # LCAO basis set for Pt:
    #   Name: dzp
    #   File: /home/mikei/.pyenv/versions/cemea-env/lib/python3.10/site-packages/gpaw_data/setups/Pt.dzp.basis.gz
    #   Number of radial functions: 9
    #   Number of spherical harmonics: 27
    #     l=0, rc=8.5938 Bohr: 6s-sz confined orbital
    #     l=1, rc=3.5781 Bohr: 5p-sz confined orbital
    #     l=1, rc=13.6250 Bohr: 6p-sz confined orbital
    #     l=2, rc=6.0938 Bohr: 5d-sz confined orbital
    #     l=0, rc=5.0625 Bohr: 6s-dz split-valence wave
    #     l=1, rc=2.4219 Bohr: 5p-dz split-valence wave
    #     l=1, rc=8.3281 Bohr: 6p-dz split-valence wave
    #     l=2, rc=3.6406 Bohr: 5d-dz split-valence wave
    #     l=1, rc=8.5938 Bohr: p-type Gaussian polarization
    #   Number of RI-basis functions 0

  H:
    name: Hydrogen
    id: 4766778ce56282eaa64abeb28b7c1de3
    Z: 1.0
    valence: 1
    core: 0
    charge: 0.0
    file: /home/mikei/.pyenv/versions/cemea-env/lib/python3.10/site-packages/gpaw_data/setups/H.LDA.gz
    compensation charges: {type: gauss,
                           rc: 0.15,
                           lmax: 2}
    cutoffs: {filter: 0.85,
              core: 0.53}
    projectors:
      #              energy  rcut
      - 1s(1.00)    -6.353   0.476
      -  s          20.858   0.476
      -  p           0.000   0.476
  
    # LCAO basis set for H:
    #   Name: dzp
    #   File: /home/mikei/.pyenv/versions/cemea-env/lib/python3.10/site-packages/gpaw_data/setups/H.dzp.basis.gz
    #   Number of radial functions: 3
    #   Number of spherical harmonics: 5
    #     l=0, rc=6.4219 Bohr: 1s-sz confined orbital
    #     l=0, rc=3.6094 Bohr: 1s-dz split-valence wave
    #     l=1, rc=6.4219 Bohr: p-type Gaussian polarization
    #   Number of RI-basis functions 0

Reference energy: -3929950.285035  # eV

Spin-paired calculation

Convergence criteria:
 Maximum [total energy] change in last 3 cyles: 1e-05 eV / valence electron
 Maximum integral of absolute [dens]ity change: 0.0001 electrons / valence electron
 Maximum integral of absolute [eigenst]ate change: 1e-05 eV^2 / valence electron
 Maximum number of scf [iter]ations: 333
 (Square brackets indicate name in SCF output, whereas a 'c' in
 the SCF output indicates the quantity has converged.)

Symmetries present (total): 2

  ( 1  0  0)  ( 0  1  0)
  ( 0  1  0)  ( 1  0  0)
  ( 0  0  1)  ( 0  0  1)

16 k-points: 4 x 4 x 1 Monkhorst-Pack grid
6 k-points in the irreducible part of the Brillouin zone
       k-points in crystal coordinates                weights
   0:     0.12500000   -0.12500000    0.00000000          2/16
   1:     0.12500000    0.12500000    0.00000000          2/16
   2:     0.37500000   -0.37500000    0.00000000          2/16
   3:     0.37500000   -0.12500000    0.00000000          4/16
   4:     0.37500000    0.12500000    0.00000000          4/16
   5:     0.37500000    0.37500000    0.00000000          2/16

Wave functions: LCAO
  Diagonalizer: Serial LAPACK
  Atomic Correction: dense with blas
  Data-type: complex
 

Occupation numbers: Fermi-Dirac:
  width: 0.1000  # eV
 

Eigensolver
   LCAO using direct dense diagonalizer 

Densities:
  Coarse grid: 36*36*124 grid
  Fine grid: 72*72*248 grid
  Total Charge: 0.000000 

Density mixing:
  Method: separate
  Backend: pulay
  Linear mixing parameter: 0.05
  old densities: 5
  Damping of long wavelength oscillations: 50 

Hamiltonian:
  XC and Coulomb potentials evaluated on a 72*72*248 grid
  Using the LDA Exchange-Correlation functional
  Interpolation: tri-quintic (5. degree polynomial)
  Poisson solver: FastPoissonSolver using
    Stencil: 6*3+1=19 point O(h^6) finite-difference Laplacian
    FFT axes: [np.int64(0), np.int64(1), np.int64(2)]
    FST axes: []
 

Memory estimate:
  Process memory now: 4818.40 MiB
  Calculator: 881.66 MiB
    Density: 222.33 MiB
      Arrays: 31.88 MiB
      Localized functions: 178.19 MiB
      Mixer: 12.26 MiB
    Hamiltonian: 33.99 MiB
      Arrays: 20.84 MiB
      XC: 0.00 MiB
      Poisson: 0.00 MiB
      vbar: 13.14 MiB
    Wavefunctions: 625.35 MiB
      C [qnM]: 49.33 MiB
      S, T [2 x qmm]: 287.48 MiB
      P [aqMi]: 6.09 MiB
      BasisFunctions: 282.46 MiB
      Eigensolver: 0.00 MiB

Total number of cores used: 1

Number of atoms: 49
Number of atomic orbitals: 1253
Number of bands in calculation: 430
Number of valence electrons: 709
Bands to converge: occupied

... initialized

Initializing position-dependent things.

Density initialized from atomic densities
      .-----------------.  
     /|                 |  
    / |                 |  
   /  |                 |  
  /   |                 |  
 *    |                 |  
 |    |                 |  
 |    |                 |  
 |    |                 |  
 |    |   H             |  
 |    | Pt    Pt        |  
 |    |                 |  
 |    PtB   Pt B        |  
 |    |                 |  
 |    B      B          |  
 | Mo |   Mo            |  
 |  Ni|   Ni    Ni      |  
 Mo   | Mo              |  
 | Ni | NNi   NNi   Ni  |  
 |    Ni    Ni    Ni    |  
 Ni   |Ni    Ni         |  
 |  NNi   NNi   NNi     |  
 | Ni | NNi   NNi   Ni  |  
 |    |                 |  
 Ni   NNi   NNi   Ni    |  
 |   Ni    Ni    Ni     |  
 |    |                 |  
 |    |                 |  
 |    |                 |  
 |    |                 |  
 |    |                 |  
 |    .-----------------.  
 |   /                 /   
 |  /                 /    
 | /                 /     
 |/                 /      
 *-----------------*       

Atomic positions and initial magnetic moments

Positions:
   0 Ni     1.244508    1.244508    8.000000    ( 0.0000,  0.0000,  0.0000)
   1 Ni     3.733524    1.244508    8.000000    ( 0.0000,  0.0000,  0.0000)
   2 Ni     6.222540    1.244508    8.000000    ( 0.0000,  0.0000,  0.0000)
   3 Ni     1.244508    3.733524    8.000000    ( 0.0000,  0.0000,  0.0000)
   4 Ni     3.733524    3.733524    8.000000    ( 0.0000,  0.0000,  0.0000)
   5 Ni     6.222540    3.733524    8.000000    ( 0.0000,  0.0000,  0.0000)
   6 Ni     1.244508    6.222540    8.000000    ( 0.0000,  0.0000,  0.0000)
   7 Ni     3.733524    6.222540    8.000000    ( 0.0000,  0.0000,  0.0000)
   8 Ni     6.222540    6.222540    8.000000    ( 0.0000,  0.0000,  0.0000)
   9 Ni     0.000000    0.000000    9.760000    ( 0.0000,  0.0000,  0.0000)
  10 Ni     2.489016    0.000000    9.760000    ( 0.0000,  0.0000,  0.0000)
  11 Ni     4.978032    0.000000    9.760000    ( 0.0000,  0.0000,  0.0000)
  12 Ni     0.000000    2.489016    9.760000    ( 0.0000,  0.0000,  0.0000)
  13 Ni     2.489016    2.489016    9.760000    ( 0.0000,  0.0000,  0.0000)
  14 Ni     4.978032    2.489016    9.760000    ( 0.0000,  0.0000,  0.0000)
  15 Ni     0.000000    4.978032    9.760000    ( 0.0000,  0.0000,  0.0000)
  16 Ni     2.489016    4.978032    9.760000    ( 0.0000,  0.0000,  0.0000)
  17 Ni     4.978032    4.978032    9.760000    ( 0.0000,  0.0000,  0.0000)
  18 Ni     1.244508    1.244508   11.520000    ( 0.0000,  0.0000,  0.0000)
  19 Ni     3.733524    1.244508   11.520000    ( 0.0000,  0.0000,  0.0000)
  20 Ni     6.222540    1.244508   11.520000    ( 0.0000,  0.0000,  0.0000)
  21 Ni     1.244508    3.733524   11.520000    ( 0.0000,  0.0000,  0.0000)
  22 Ni     3.733524    3.733524   11.520000    ( 0.0000,  0.0000,  0.0000)
  23 Ni     6.222540    3.733524   11.520000    ( 0.0000,  0.0000,  0.0000)
  24 Ni     1.244508    6.222540   11.520000    ( 0.0000,  0.0000,  0.0000)
  25 Ni     3.733524    6.222540   11.520000    ( 0.0000,  0.0000,  0.0000)
  26 Ni     6.222540    6.222540   11.520000    ( 0.0000,  0.0000,  0.0000)
  27 Ni     0.000000    0.000000   13.280000    ( 0.0000,  0.0000,  0.0000)
  28 Ni     2.489016    0.000000   13.280000    ( 0.0000,  0.0000,  0.0000)
  29 Ni     4.978032    0.000000   13.280000    ( 0.0000,  0.0000,  0.0000)
  30 Ni     0.000000    2.489016   13.280000    ( 0.0000,  0.0000,  0.0000)
  31 Ni     2.489016    2.489016   13.280000    ( 0.0000,  0.0000,  0.0000)
  32 Ni     4.978032    2.489016   13.280000    ( 0.0000,  0.0000,  0.0000)
  33 Ni     0.000000    4.978032   13.280000    ( 0.0000,  0.0000,  0.0000)
  34 Ni     2.489016    4.978032   13.280000    ( 0.0000,  0.0000,  0.0000)
  35 Ni     4.978032    4.978032   13.280000    ( 0.0000,  0.0000,  0.0000)
  36 Mo     0.000000    0.000000   15.480000    ( 0.0000,  0.0000,  0.0000)
  37 B      1.525000    1.525000   17.005000    ( 0.0000,  0.0000,  0.0000)
  38 Mo     0.000000    3.050000   15.480000    ( 0.0000,  0.0000,  0.0000)
  39 B      1.525000    4.575000   17.005000    ( 0.0000,  0.0000,  0.0000)
  40 Mo     3.050000    0.000000   15.480000    ( 0.0000,  0.0000,  0.0000)
  41 B      4.575000    1.525000   17.005000    ( 0.0000,  0.0000,  0.0000)
  42 Mo     3.050000    3.050000   15.480000    ( 0.0000,  0.0000,  0.0000)
  43 B      4.575000    4.575000   17.005000    ( 0.0000,  0.0000,  0.0000)
  44 Pt     1.761494    1.761494   18.805000    ( 0.0000,  0.0000,  0.0000)
  45 Pt     1.761494    4.161494   18.805000    ( 0.0000,  0.0000,  0.0000)
  46 Pt     4.161494    1.761494   18.805000    ( 0.0000,  0.0000,  0.0000)
  47 Pt     4.161494    4.161494   18.805000    ( 0.0000,  0.0000,  0.0000)
  48 H      2.961494    2.961494   20.305000    ( 0.0000,  0.0000,  0.0000)

Unit cell:
           periodic     x           y           z      points  spacing
  1. axis:    yes    7.467048    0.000000    0.000000    36     0.2074
  2. axis:    yes    0.000000    7.467048    0.000000    36     0.2074
  3. axis:    yes    0.000000    0.000000   25.005000   124     0.2017

  Lengths:   7.467048   7.467048  25.005000
  Angles:   90.000000  90.000000  90.000000

Effective grid spacing dv^(1/3) = 0.2055

     iter     time        total  log10-change:
                         energy   eigst   dens
iter:   1 15:28:54 -1009.071926        c
iter:   2 15:30:43 -3489.274076        c -0.94
iter:   3 15:32:18  -549.826079        c -0.43
iter:   4 15:33:46  -386.325043        c -1.24
iter:   5 15:35:34  -384.921247        c -1.48
iter:   6 15:37:06  -382.712242        c -1.55
iter:   7 15:39:12  -368.003456        c -1.46
iter:   8 15:41:14  -375.617947        c -1.67
iter:   9 15:43:12  -361.467558        c -1.49
iter:  10 15:45:08  -354.317937        c -1.72
iter:  11 15:47:00  -354.609402        c -1.80
iter:  12 15:49:25  -368.023631        c -1.90
iter:  13 15:51:06  -355.321515        c -1.75
iter:  14 15:53:21  -354.727071        c -1.88
iter:  15 15:54:56  -356.533964        c -1.91
iter:  16 15:56:38  -353.910985        c -1.82
iter:  17 15:58:03  -354.938338        c -2.05
iter:  18 15:59:22  -353.705091        c -2.06
iter:  19 16:00:51  -355.818834        c -2.11
iter:  20 16:02:16  -354.573872        c -1.97
iter:  21 16:03:51  -356.312171        c -2.13
iter:  22 16:05:41  -353.777926        c -2.12
iter:  23 16:07:32  -352.473627        c -2.10
iter:  24 16:09:17  -353.676762        c -2.33
iter:  25 16:11:07  -352.435114        c -2.15
iter:  26 16:12:45  -352.139548        c -2.36
iter:  27 16:14:20  -352.115562        c -2.55
iter:  28 16:15:49  -352.223475        c -2.61
iter:  29 16:18:23  -352.115207        c -2.55
iter:  30 16:20:02  -352.124742        c -2.67
iter:  31 16:21:47  -352.098493        c -2.71
iter:  32 16:23:14  -352.130575        c -2.70
iter:  33 16:25:15  -352.079507        c -2.70
iter:  34 16:26:56  -352.081613        c -2.80
iter:  35 16:28:30  -352.139103        c -2.83
iter:  36 16:29:59  -352.053998        c -2.78
iter:  37 16:31:55  -352.106055        c -2.94
iter:  38 16:33:38  -352.048886        c -2.79
iter:  39 16:35:29  -352.049161        c -2.88
iter:  40 16:37:26  -352.053310c       c -3.00
iter:  41 16:39:17  -352.040781        c -3.04
iter:  42 16:40:55  -352.028553        c -3.06
iter:  43 16:42:32  -352.015499        c -3.22
iter:  44 16:44:02  -352.033050        c -3.27
iter:  45 16:46:08  -352.017655        c -3.21
iter:  46 16:47:39  -352.020467        c -3.35
iter:  47 16:49:21  -352.023032c       c -3.24
iter:  48 16:51:21  -352.015323        c -3.41
iter:  49 16:52:58  -352.028036        c -3.42
iter:  50 16:54:55  -352.018800        c -3.28
iter:  51 16:56:36  -352.017816        c -3.52
iter:  52 16:58:05  -352.018754c       c -3.44
iter:  53 16:59:39  -352.015100c       c -3.57
iter:  54 17:01:22  -352.020426c       c -3.65
iter:  55 17:02:57  -352.020834c       c -3.52
iter:  56 17:04:24  -352.015052c       c -3.43
iter:  57 17:05:58  -352.017312c       c -3.63
iter:  58 17:07:47  -352.014953c       c -3.64
iter:  59 17:09:13  -352.016080c       c -3.77
iter:  60 17:10:59  -352.014719c       c -3.78
iter:  61 17:12:20  -352.019769c       c -3.76
iter:  62 17:14:12  -352.022494        c -3.49
iter:  63 17:15:35  -352.015815c       c -3.43
iter:  64 17:17:11  -352.017097c       c -3.73
iter:  65 17:18:31  -352.017086c       c -3.76
iter:  66 17:20:26  -352.016615c       c -3.72
iter:  67 17:22:27  -352.018425c       c -3.86
iter:  68 17:24:07  -352.014189c       c -3.63
iter:  69 17:26:01  -352.015663c       c -3.52
iter:  70 17:27:27  -352.015034c       c -3.92
iter:  71 17:29:25  -352.015027c       c -4.05c

Converged after 71 iterations.

Dipole moment: (-13.906838, -13.906838, 0.041059) |e|*Ang

Energy contributions relative to reference atoms: (reference = -3929950.285035)

Kinetic:       +131.411320
Potential:      -95.362802
External:        +0.000000
XC:            -384.718593
Entropy (-ST):   -3.679799
Local:           -1.505053
SIC:             +0.000000
--------------------------
Free energy:   -353.854927
Extrapolated:  -352.015027

Showing only first 2 kpts
 Kpt  Band  Eigenvalues  Occupancy
  0   352      0.35809    1.29538
  0   353      0.36991    1.24057
  0   354      0.37216    1.22995
  0   355      0.38219    1.18194

  1   352      0.35344    1.31645
  1   353      0.37074    1.23665
  1   354      0.37475    1.21764
  1   355      0.38674    1.15985


Fermi level: 0.41898

No gap
No difference between direct/indirect transitions
Timing:                              incl.     excl.
-----------------------------------------------------------
Basic WFS set positions:             0.001     0.001   0.0% |
Basis functions set positions:       0.223     0.223   0.0% |
LCAO WFS Initialize:                 0.442     0.125   0.0% |
 Hamiltonian:                        0.317     0.000   0.0% |
  Atomic:                            0.159     0.002   0.0% |
   XC Correction:                    0.157     0.157   0.0% |
  Calculate atomic Hamiltonians:     0.026     0.026   0.0% |
  Communicate:                       0.000     0.000   0.0% |
  Hartree integrate/restrict:        0.011     0.011   0.0% |
  Initialize Hamiltonian:            0.001     0.001   0.0% |
  Poisson:                           0.076     0.005   0.0% |
   Communicate from 1D:              0.007     0.007   0.0% |
   Communicate from 2D:              0.007     0.007   0.0% |
   Communicate to 1D:                0.008     0.008   0.0% |
   Communicate to 2D:                0.011     0.011   0.0% |
   FFT 1D:                           0.016     0.016   0.0% |
   FFT 2D:                           0.022     0.022   0.0% |
  XC 3D grid:                        0.044     0.044   0.0% |
  vbar:                              0.001     0.001   0.0% |
P tci:                               3.647     3.647   0.1% |
SCF-cycle:                        7274.978     0.168   0.0% |
 Density:                         3688.583     0.001   0.0% |
  Atomic density matrices:           1.034     1.034   0.0% |
  Mix:                               9.392     9.392   0.1% |
  Multipole moments:                 0.020     0.020   0.0% |
  Normalize:                         0.007     0.007   0.0% |
  Pseudo density:                 3678.129     0.024   0.0% |
   Calculate density matrix:        11.498    11.498   0.2% |
   Construct density:             3666.338  3666.338  50.3% |-------------------|
   Symmetrize density:               0.269     0.269   0.0% |
 Hamiltonian:                       24.280     0.003   0.0% |
  Atomic:                           11.162     0.127   0.0% |
   XC Correction:                   11.035    11.035   0.2% |
  Calculate atomic Hamiltonians:     1.829     1.829   0.0% |
  Communicate:                       0.000     0.000   0.0% |
  Hartree integrate/restrict:        0.772     0.772   0.0% |
  Poisson:                           5.217     0.412   0.0% |
   Communicate from 1D:              0.586     0.586   0.0% |
   Communicate from 2D:              0.522     0.522   0.0% |
   Communicate to 1D:                0.469     0.469   0.0% |
   Communicate to 2D:                0.714     0.714   0.0% |
   FFT 1D:                           1.008     1.008   0.0% |
   FFT 2D:                           1.505     1.505   0.0% |
  XC 3D grid:                        4.544     4.544   0.1% |
  vbar:                              0.753     0.753   0.0% |
 LCAO eigensolver:                3561.947     1.663   0.0% |
  Calculate projections:            91.167    91.167   1.3% ||
  DenseAtomicCorrection:           250.900   250.900   3.4% ||
  Distribute overlap matrix:         3.402     3.402   0.0% |
  Orbital Layouts:                2370.554  2370.554  32.5% |------------|
  Potential matrix:                776.164   776.164  10.7% |---|
  Sum over cells:                   68.097    68.097   0.9% |
ST tci:                              1.820     1.820   0.0% |
Set symmetry:                        0.000     0.000   0.0% |
TCI: Evaluate splines:               0.692     0.692   0.0% |
mktci:                               0.026     0.026   0.0% |
Other:                               4.782     4.782   0.1% |
-----------------------------------------------------------
Total:                                      7286.611 100.0%

Memory usage: 4.71 GiB
Date: Tue Mar  3 17:29:25 2026
