
  ___ ___ ___ _ _ _  
 |   |   |_  | | | | 
 | | | | | . | | | | 
 |__ |  _|___|_____|  25.7.0
 |___|_|             

User:   mikei@Z790-AORUS-ELITE-AX
Date:   Mon Mar  2 16:46:32 2026
Arch:   x86_64
Pid:    89048
CWD:    /home/mikei/Dokumenty/code/cemea/ocx
Python: 3.10.16
gpaw:   /home/mikei/.pyenv/versions/cemea-env/lib/python3.10/site-packages/gpaw
_gpaw:  /home/mikei/.pyenv/versions/cemea-env/lib/python3.10/site-packages/
        _gpaw.cpython-310-x86_64-linux-gnu.so
ase:    /home/mikei/.pyenv/versions/cemea-env/lib/python3.10/site-packages/ase (version 3.27.0)
numpy:  /home/mikei/.pyenv/versions/cemea-env/lib/python3.10/site-packages/numpy (version 2.2.6)
scipy:  /home/mikei/.pyenv/versions/cemea-env/lib/python3.10/site-packages/scipy (version 1.15.3)
libxc:  2.x.y
units:  Angstrom and eV
cores: 1
OpenMP: False
OMP_NUM_THREADS: 1

Input parameters:
  basis: dzp
  convergence: {density: 0.0001,
                eigenstates: 1e-05,
                energy: 1e-05}
  kpts: [4 4 1]
  mode: lcao

System changes: positions, numbers, cell, pbc, initial_charges, initial_magmoms 

Initialize ...

species:
  Ni:
    name: Nickel
    id: 1802175e8de9ea26d9f4394ec1a7d564
    Z: 28.0
    valence: 16
    core: 12
    charge: 0.0
    file: /home/mikei/.pyenv/versions/cemea-env/lib/python3.10/site-packages/gpaw_data/setups/Ni.LDA.gz
    compensation charges: {type: gauss,
                           rc: 0.36,
                           lmax: 2}
    cutoffs: {filter: 2.14,
              core: 1.98}
    projectors:
      #              energy  rcut
      - 4s(2.00)    -5.858   1.164
      - 3p(6.00)   -71.266   1.207
      - 4p(0.00)    -1.338   1.207
      - 3d(8.00)    -9.141   1.138
      -  s          21.353   1.164
      -  d          18.071   1.138
  
    # LCAO basis set for Ni:
    #   Name: dzp
    #   File: /home/mikei/.pyenv/versions/cemea-env/lib/python3.10/site-packages/gpaw_data/setups/Ni.dzp.basis.gz
    #   Number of radial functions: 9
    #   Number of spherical harmonics: 27
    #     l=0, rc=8.5156 Bohr: 4s-sz confined orbital
    #     l=1, rc=2.9375 Bohr: 3p-sz confined orbital
    #     l=1, rc=12.4062 Bohr: 4p-sz confined orbital
    #     l=2, rc=4.6875 Bohr: 3d-sz confined orbital
    #     l=0, rc=4.9688 Bohr: 4s-dz split-valence wave
    #     l=1, rc=2.0781 Bohr: 3p-dz split-valence wave
    #     l=1, rc=7.5469 Bohr: 4p-dz split-valence wave
    #     l=2, rc=2.9375 Bohr: 3d-dz split-valence wave
    #     l=1, rc=8.5156 Bohr: p-type Gaussian polarization
    #   Number of RI-basis functions 0

  Mo:
    name: Molybdenum
    id: ac24daaf086600a00ce6d19a74574df1
    Z: 42.0
    valence: 14
    core: 28
    charge: 0.0
    file: /home/mikei/.pyenv/versions/cemea-env/lib/python3.10/site-packages/gpaw_data/setups/Mo.LDA.gz
    compensation charges: {type: gauss,
                           rc: 0.38,
                           lmax: 2}
    cutoffs: {filter: 2.16,
              core: 1.42}
    projectors:
      #              energy  rcut
      - 4s(2.00)   -64.384   1.238
      - 5s(1.00)    -4.319   1.238
      - 4p(6.00)   -38.595   1.296
      - 5p(0.00)    -1.161   1.296
      - 4d(5.00)    -3.933   1.296
      -  d          23.278   1.296
  
    # LCAO basis set for Mo:
    #   Name: dzp
    #   File: /home/mikei/.pyenv/versions/cemea-env/lib/python3.10/site-packages/gpaw_data/setups/Mo.dzp.basis.gz
    #   Number of radial functions: 11
    #   Number of spherical harmonics: 29
    #     l=0, rc=3.5469 Bohr: 4s-sz confined orbital
    #     l=0, rc=10.0469 Bohr: 5s-sz confined orbital
    #     l=1, rc=4.0781 Bohr: 4p-sz confined orbital
    #     l=1, rc=14.0938 Bohr: 5p-sz confined orbital
    #     l=2, rc=7.2031 Bohr: 4d-sz confined orbital
    #     l=0, rc=2.1250 Bohr: 4s-dz split-valence wave
    #     l=0, rc=6.1250 Bohr: 5s-dz split-valence wave
    #     l=1, rc=2.5469 Bohr: 4p-dz split-valence wave
    #     l=1, rc=8.7656 Bohr: 5p-dz split-valence wave
    #     l=2, rc=4.2344 Bohr: 4d-dz split-valence wave
    #     l=1, rc=10.0469 Bohr: p-type Gaussian polarization
    #   Number of RI-basis functions 0

  B:
    name: Boron
    id: 02e2e0e88ef95f403158802f6b0f4231
    Z: 5.0
    valence: 3
    core: 2
    charge: 0.0
    file: /home/mikei/.pyenv/versions/cemea-env/lib/python3.10/site-packages/gpaw_data/setups/B.LDA.gz
    compensation charges: {type: gauss,
                           rc: 0.20,
                           lmax: 2}
    cutoffs: {filter: 1.14,
              core: 1.42}
    projectors:
      #              energy  rcut
      - 2s(2.00)    -9.383   0.635
      - 2p(1.00)    -3.714   0.635
      -  s          17.828   0.635
      -  p          23.498   0.635
      -  d           0.000   0.635
  
    # LCAO basis set for B:
    #   Name: dzp
    #   File: /home/mikei/.pyenv/versions/cemea-env/lib/python3.10/site-packages/gpaw_data/setups/B.dzp.basis.gz
    #   Number of radial functions: 5
    #   Number of spherical harmonics: 13
    #     l=0, rc=6.6719 Bohr: 2s-sz confined orbital
    #     l=1, rc=8.2188 Bohr: 2p-sz confined orbital
    #     l=0, rc=3.7500 Bohr: 2s-dz split-valence wave
    #     l=1, rc=4.6094 Bohr: 2p-dz split-valence wave
    #     l=2, rc=8.2188 Bohr: d-type Gaussian polarization
    #   Number of RI-basis functions 0

  Ag:
    name: Silver
    id: 5bcdc129af383d1b52b015d30ddad325
    Z: 47.0
    valence: 17
    core: 30
    charge: 0.0
    file: /home/mikei/.pyenv/versions/cemea-env/lib/python3.10/site-packages/gpaw_data/setups/Ag.LDA.gz
    compensation charges: {type: gauss,
                           rc: 0.40,
                           lmax: 2}
    cutoffs: {filter: 2.35,
              core: 2.19}
    projectors:
      #              energy  rcut
      - 5s(1.00)    -4.708   1.286
      - 4p(6.00)   -58.678   1.328
      - 5p(0.00)    -0.844   1.328
      - 4d(10.00)    -7.664   1.180
      -  s          22.503   1.286
      -  d          19.547   1.180
  
    # LCAO basis set for Ag:
    #   Name: dzp
    #   File: /home/mikei/.pyenv/versions/cemea-env/lib/python3.10/site-packages/gpaw_data/setups/Ag.dzp.basis.gz
    #   Number of radial functions: 9
    #   Number of spherical harmonics: 27
    #     l=0, rc=9.2812 Bohr: 5s-sz confined orbital
    #     l=1, rc=3.3750 Bohr: 4p-sz confined orbital
    #     l=1, rc=14.2344 Bohr: 5p-sz confined orbital
    #     l=2, rc=5.4531 Bohr: 4d-sz confined orbital
    #     l=0, rc=5.5156 Bohr: 5s-dz split-valence wave
    #     l=1, rc=2.3281 Bohr: 4p-dz split-valence wave
    #     l=1, rc=8.7656 Bohr: 5p-dz split-valence wave
    #     l=2, rc=3.2656 Bohr: 4d-dz split-valence wave
    #     l=1, rc=9.2812 Bohr: p-type Gaussian polarization
    #   Number of RI-basis functions 0

Reference energy: -2507409.289616  # eV

Spin-paired calculation

Convergence criteria:
 Maximum [total energy] change in last 3 cyles: 1e-05 eV / valence electron
 Maximum integral of absolute [dens]ity change: 0.0001 electrons / valence electron
 Maximum integral of absolute [eigenst]ate change: 1e-05 eV^2 / valence electron
 Maximum number of scf [iter]ations: 333
 (Square brackets indicate name in SCF output, whereas a 'c' in
 the SCF output indicates the quantity has converged.)

Symmetries present (total): 2

  ( 1  0  0)  ( 0  1  0)
  ( 0  1  0)  ( 1  0  0)
  ( 0  0  1)  ( 0  0  1)

16 k-points: 4 x 4 x 1 Monkhorst-Pack grid
6 k-points in the irreducible part of the Brillouin zone
       k-points in crystal coordinates                weights
   0:     0.12500000   -0.12500000    0.00000000          2/16
   1:     0.12500000    0.12500000    0.00000000          2/16
   2:     0.37500000   -0.37500000    0.00000000          2/16
   3:     0.37500000   -0.12500000    0.00000000          4/16
   4:     0.37500000    0.12500000    0.00000000          4/16
   5:     0.37500000    0.37500000    0.00000000          2/16

Wave functions: LCAO
  Diagonalizer: Serial LAPACK
  Atomic Correction: dense with blas
  Data-type: complex
 

Occupation numbers: Fermi-Dirac:
  width: 0.1000  # eV
 

Eigensolver
   LCAO using direct dense diagonalizer 

Densities:
  Coarse grid: 36*36*124 grid
  Fine grid: 72*72*248 grid
  Total Charge: 0.000000 

Density mixing:
  Method: separate
  Backend: pulay
  Linear mixing parameter: 0.05
  old densities: 5
  Damping of long wavelength oscillations: 50 

Hamiltonian:
  XC and Coulomb potentials evaluated on a 72*72*248 grid
  Using the LDA Exchange-Correlation functional
  Interpolation: tri-quintic (5. degree polynomial)
  Poisson solver: FastPoissonSolver using
    Stencil: 6*3+1=19 point O(h^6) finite-difference Laplacian
    FFT axes: [np.int64(0), np.int64(1), np.int64(2)]
    FST axes: []
 

Memory estimate:
  Process memory now: 4818.40 MiB
  Calculator: 880.25 MiB
    Density: 220.12 MiB
      Arrays: 31.88 MiB
      Localized functions: 175.98 MiB
      Mixer: 12.26 MiB
    Hamiltonian: 34.13 MiB
      Arrays: 20.84 MiB
      XC: 0.00 MiB
      Poisson: 0.00 MiB
      vbar: 13.29 MiB
    Wavefunctions: 626.00 MiB
      C [qnM]: 49.36 MiB
      S, T [2 x qmm]: 285.19 MiB
      P [aqMi]: 6.03 MiB
      BasisFunctions: 285.42 MiB
      Eigensolver: 0.00 MiB

Total number of cores used: 1

Number of atoms: 48
Number of atomic orbitals: 1248
Number of bands in calculation: 432
Number of valence electrons: 712
Bands to converge: occupied

... initialized

Initializing position-dependent things.

Density initialized from atomic densities
      .-----------------.  
     /|                 |  
    / |                 |  
   /  |                 |  
  /   |                 |  
 *    |                 |  
 |    |                 |  
 |    |                 |  
 |    |                 |  
 |    |                 |  
 |    | Ag    Ag        |  
 |    |                 |  
 |    AgB   Ag B        |  
 |    |                 |  
 |    B      B          |  
 | Mo |   Mo            |  
 |  Ni|   Ni    Ni      |  
 Mo   | Mo              |  
 | Ni | NNi   NNi   Ni  |  
 |    Ni    Ni    Ni    |  
 Ni   |Ni    Ni         |  
 |  NNi   NNi   NNi     |  
 | Ni | NNi   NNi   Ni  |  
 |    |                 |  
 Ni   NNi   NNi   Ni    |  
 |   Ni    Ni    Ni     |  
 |    |                 |  
 |    |                 |  
 |    |                 |  
 |    |                 |  
 |    |                 |  
 |    .-----------------.  
 |   /                 /   
 |  /                 /    
 | /                 /     
 |/                 /      
 *-----------------*       

Atomic positions and initial magnetic moments

Positions:
   0 Ni     1.244508    1.244508    8.000000    ( 0.0000,  0.0000,  0.0000)
   1 Ni     3.733524    1.244508    8.000000    ( 0.0000,  0.0000,  0.0000)
   2 Ni     6.222540    1.244508    8.000000    ( 0.0000,  0.0000,  0.0000)
   3 Ni     1.244508    3.733524    8.000000    ( 0.0000,  0.0000,  0.0000)
   4 Ni     3.733524    3.733524    8.000000    ( 0.0000,  0.0000,  0.0000)
   5 Ni     6.222540    3.733524    8.000000    ( 0.0000,  0.0000,  0.0000)
   6 Ni     1.244508    6.222540    8.000000    ( 0.0000,  0.0000,  0.0000)
   7 Ni     3.733524    6.222540    8.000000    ( 0.0000,  0.0000,  0.0000)
   8 Ni     6.222540    6.222540    8.000000    ( 0.0000,  0.0000,  0.0000)
   9 Ni     0.000000    0.000000    9.760000    ( 0.0000,  0.0000,  0.0000)
  10 Ni     2.489016    0.000000    9.760000    ( 0.0000,  0.0000,  0.0000)
  11 Ni     4.978032    0.000000    9.760000    ( 0.0000,  0.0000,  0.0000)
  12 Ni     0.000000    2.489016    9.760000    ( 0.0000,  0.0000,  0.0000)
  13 Ni     2.489016    2.489016    9.760000    ( 0.0000,  0.0000,  0.0000)
  14 Ni     4.978032    2.489016    9.760000    ( 0.0000,  0.0000,  0.0000)
  15 Ni     0.000000    4.978032    9.760000    ( 0.0000,  0.0000,  0.0000)
  16 Ni     2.489016    4.978032    9.760000    ( 0.0000,  0.0000,  0.0000)
  17 Ni     4.978032    4.978032    9.760000    ( 0.0000,  0.0000,  0.0000)
  18 Ni     1.244508    1.244508   11.520000    ( 0.0000,  0.0000,  0.0000)
  19 Ni     3.733524    1.244508   11.520000    ( 0.0000,  0.0000,  0.0000)
  20 Ni     6.222540    1.244508   11.520000    ( 0.0000,  0.0000,  0.0000)
  21 Ni     1.244508    3.733524   11.520000    ( 0.0000,  0.0000,  0.0000)
  22 Ni     3.733524    3.733524   11.520000    ( 0.0000,  0.0000,  0.0000)
  23 Ni     6.222540    3.733524   11.520000    ( 0.0000,  0.0000,  0.0000)
  24 Ni     1.244508    6.222540   11.520000    ( 0.0000,  0.0000,  0.0000)
  25 Ni     3.733524    6.222540   11.520000    ( 0.0000,  0.0000,  0.0000)
  26 Ni     6.222540    6.222540   11.520000    ( 0.0000,  0.0000,  0.0000)
  27 Ni     0.000000    0.000000   13.280000    ( 0.0000,  0.0000,  0.0000)
  28 Ni     2.489016    0.000000   13.280000    ( 0.0000,  0.0000,  0.0000)
  29 Ni     4.978032    0.000000   13.280000    ( 0.0000,  0.0000,  0.0000)
  30 Ni     0.000000    2.489016   13.280000    ( 0.0000,  0.0000,  0.0000)
  31 Ni     2.489016    2.489016   13.280000    ( 0.0000,  0.0000,  0.0000)
  32 Ni     4.978032    2.489016   13.280000    ( 0.0000,  0.0000,  0.0000)
  33 Ni     0.000000    4.978032   13.280000    ( 0.0000,  0.0000,  0.0000)
  34 Ni     2.489016    4.978032   13.280000    ( 0.0000,  0.0000,  0.0000)
  35 Ni     4.978032    4.978032   13.280000    ( 0.0000,  0.0000,  0.0000)
  36 Mo     0.000000    0.000000   15.480000    ( 0.0000,  0.0000,  0.0000)
  37 B      1.525000    1.525000   17.005000    ( 0.0000,  0.0000,  0.0000)
  38 Mo     0.000000    3.050000   15.480000    ( 0.0000,  0.0000,  0.0000)
  39 B      1.525000    4.575000   17.005000    ( 0.0000,  0.0000,  0.0000)
  40 Mo     3.050000    0.000000   15.480000    ( 0.0000,  0.0000,  0.0000)
  41 B      4.575000    1.525000   17.005000    ( 0.0000,  0.0000,  0.0000)
  42 Mo     3.050000    3.050000   15.480000    ( 0.0000,  0.0000,  0.0000)
  43 B      4.575000    4.575000   17.005000    ( 0.0000,  0.0000,  0.0000)
  44 Ag     1.761494    1.761494   18.805000    ( 0.0000,  0.0000,  0.0000)
  45 Ag     1.761494    4.161494   18.805000    ( 0.0000,  0.0000,  0.0000)
  46 Ag     4.161494    1.761494   18.805000    ( 0.0000,  0.0000,  0.0000)
  47 Ag     4.161494    4.161494   18.805000    ( 0.0000,  0.0000,  0.0000)

Unit cell:
           periodic     x           y           z      points  spacing
  1. axis:    yes    7.467048    0.000000    0.000000    36     0.2074
  2. axis:    yes    0.000000    7.467048    0.000000    36     0.2074
  3. axis:    yes    0.000000    0.000000   25.005000   124     0.2017

  Lengths:   7.467048   7.467048  25.005000
  Angles:   90.000000  90.000000  90.000000

Effective grid spacing dv^(1/3) = 0.2055

     iter     time        total  log10-change:
                         energy   eigst   dens
iter:   1 16:48:05  -745.165076        c
iter:   2 16:50:02 -3126.916915        c -1.03
iter:   3 16:52:04  -463.859918        c -0.45
iter:   4 16:54:30  -459.655837        c -1.28
iter:   5 16:56:55  -418.841180        c -1.14
iter:   6 16:58:54  -378.181834        c -1.37
iter:   7 17:01:07  -379.526155        c -1.54
iter:   8 17:03:35  -349.730386        c -1.55
iter:   9 17:05:47  -340.210981        c -1.69
iter:  10 17:07:20  -360.402877        c -1.69
iter:  11 17:08:56  -341.759695        c -1.50
iter:  12 17:11:20  -352.405399        c -1.73
iter:  13 17:13:12  -343.986474        c -1.78
iter:  14 17:15:03  -340.483702        c -1.83
iter:  15 17:17:06  -336.740420        c -1.79
iter:  16 17:19:07  -386.628929        c -1.94
iter:  17 17:21:00  -334.500240        c -1.43
iter:  18 17:22:34  -334.693739        c -2.05
iter:  19 17:24:24  -333.369809        c -2.01
iter:  20 17:26:17  -335.680770        c -2.13
iter:  21 17:28:08  -333.871031        c -1.99
iter:  22 17:29:28  -339.543284        c -2.05
iter:  23 17:30:55  -338.004196        c -1.85
iter:  24 17:32:31  -333.536083        c -2.03
iter:  25 17:34:20  -333.023761        c -2.24
iter:  26 17:36:16  -332.126086        c -2.19
iter:  27 17:37:57  -332.216075        c -2.38
iter:  28 17:39:36  -332.362982        c -2.34
iter:  29 17:41:26  -332.676119        c -2.34
iter:  30 17:42:58  -332.161514        c -2.30
iter:  31 17:44:53  -332.039961        c -2.43
iter:  32 17:46:48  -331.743529        c -2.49
iter:  33 17:48:33  -331.829073        c -2.65
iter:  34 17:50:09  -331.772821        c -2.64
iter:  35 17:51:25  -331.760719        c -2.67
iter:  36 17:53:06  -331.719189        c -2.69
iter:  37 17:54:34  -332.139365        c -2.76
iter:  38 17:56:27  -331.735592        c -2.50
iter:  39 17:58:02  -331.730384        c -2.80
iter:  40 17:59:40  -331.740901        c -2.83
iter:  41 18:01:17  -331.736591        c -2.86
iter:  42 18:03:07  -331.777871        c -2.85
iter:  43 18:04:48  -331.710357        c -2.82
iter:  44 18:06:14  -331.666751        c -2.84
iter:  45 18:07:51  -331.683281        c -3.12
iter:  46 18:09:22  -331.683533        c -3.07
iter:  47 18:11:38  -331.662724        c -3.03
iter:  48 18:13:14  -331.663746        c -3.15
iter:  49 18:15:04  -331.666070c       c -3.17
iter:  50 18:16:21  -331.697795        c -3.25
iter:  51 18:18:22  -331.735212        c -3.10
iter:  52 18:20:20  -331.676780        c -2.99
iter:  53 18:22:08  -331.690441        c -3.02
iter:  54 18:23:55  -331.666411        c -3.16
iter:  55 18:25:45  -331.664373        c -3.35
iter:  56 18:27:48  -331.660979c       c -3.39
iter:  57 18:29:09  -331.664159c       c -3.46
iter:  58 18:31:01  -331.667021c       c -3.43
iter:  59 18:32:24  -331.691093        c -3.42
iter:  60 18:34:11  -331.680990        c -3.14
iter:  61 18:36:08  -331.668807        c -3.28
iter:  62 18:37:30  -331.664864        c -3.32
iter:  63 18:39:12  -331.663729c       c -3.58
iter:  64 18:41:05  -331.662049c       c -3.59
iter:  65 18:42:42  -331.661951c       c -3.67
iter:  66 18:44:28  -331.662855c       c -3.63
iter:  67 18:45:50  -331.665867c       c -3.70
iter:  68 18:47:24  -331.665532c       c -3.56
iter:  69 18:48:47  -331.662970c       c -3.61
iter:  70 18:50:11  -331.662645c       c -3.60
iter:  71 18:52:01  -331.662332c       c -3.62
iter:  72 18:53:59  -331.661543c       c -3.83
iter:  73 18:55:45  -331.660465c       c -3.96
iter:  74 18:57:01  -331.661457c       c -3.97
iter:  75 18:58:46  -331.661340c       c -3.89
iter:  76 19:00:47  -331.668907        c -4.00c
iter:  77 19:02:37  -331.662694        c -3.43
iter:  78 19:04:15  -331.660402        c -3.74
iter:  79 19:05:55  -331.661432c       c -4.13c

Converged after 79 iterations.

Dipole moment: (-13.813273, -13.813273, 0.544013) |e|*Ang

Energy contributions relative to reference atoms: (reference = -2507409.289616)

Kinetic:       +104.649317
Potential:      -60.817588
External:        +0.000000
XC:            -372.058097
Entropy (-ST):   -3.525268
Local:           -1.672430
SIC:             +0.000000
--------------------------
Free energy:   -333.424066
Extrapolated:  -331.661432

Showing only first 2 kpts
 Kpt  Band  Eigenvalues  Occupancy
  0   354      0.44990    1.28670
  0   355      0.45562    1.26024
  0   356      0.46137    1.23323
  0   357      0.46975    1.19324

  1   354      0.44418    1.31273
  1   355      0.45349    1.27015
  1   356      0.46045    1.23759
  1   357      0.47356    1.17483


Fermi level: 0.50889

No gap
No difference between direct/indirect transitions
Timing:                              incl.     excl.
-----------------------------------------------------------
Basic WFS set positions:             0.001     0.001   0.0% |
Basis functions set positions:       0.178     0.178   0.0% |
LCAO WFS Initialize:                 0.403     0.090   0.0% |
 Hamiltonian:                        0.313     0.000   0.0% |
  Atomic:                            0.159     0.002   0.0% |
   XC Correction:                    0.157     0.157   0.0% |
  Calculate atomic Hamiltonians:     0.025     0.025   0.0% |
  Communicate:                       0.000     0.000   0.0% |
  Hartree integrate/restrict:        0.006     0.006   0.0% |
  Initialize Hamiltonian:            0.001     0.001   0.0% |
  Poisson:                           0.074     0.005   0.0% |
   Communicate from 1D:              0.008     0.008   0.0% |
   Communicate from 2D:              0.007     0.007   0.0% |
   Communicate to 1D:                0.007     0.007   0.0% |
   Communicate to 2D:                0.010     0.010   0.0% |
   FFT 1D:                           0.016     0.016   0.0% |
   FFT 2D:                           0.021     0.021   0.0% |
  XC 3D grid:                        0.044     0.044   0.0% |
  vbar:                              0.004     0.004   0.0% |
P tci:                               3.755     3.755   0.0% |
SCF-cycle:                        8351.733     0.267   0.0% |
 Density:                         4167.987     0.001   0.0% |
  Atomic density matrices:           1.139     1.139   0.0% |
  Mix:                              10.204    10.204   0.1% |
  Multipole moments:                 0.021     0.021   0.0% |
  Normalize:                         0.008     0.008   0.0% |
  Pseudo density:                 4156.612     0.026   0.0% |
   Calculate density matrix:        12.984    12.984   0.2% |
   Construct density:             4143.303  4143.303  49.5% |-------------------|
   Symmetrize density:               0.300     0.300   0.0% |
 Hamiltonian:                       26.801     0.004   0.0% |
  Atomic:                           12.249     0.135   0.0% |
   XC Correction:                   12.114    12.114   0.1% |
  Calculate atomic Hamiltonians:     1.980     1.980   0.0% |
  Communicate:                       0.000     0.000   0.0% |
  Hartree integrate/restrict:        0.804     0.804   0.0% |
  Poisson:                           5.716     0.468   0.0% |
   Communicate from 1D:              0.643     0.643   0.0% |
   Communicate from 2D:              0.579     0.579   0.0% |
   Communicate to 1D:                0.524     0.524   0.0% |
   Communicate to 2D:                0.674     0.674   0.0% |
   FFT 1D:                           1.101     1.101   0.0% |
   FFT 2D:                           1.727     1.727   0.0% |
  XC 3D grid:                        5.200     5.200   0.1% |
  vbar:                              0.849     0.849   0.0% |
 LCAO eigensolver:                4156.678     1.521   0.0% |
  Calculate projections:            97.946    97.946   1.2% |
  DenseAtomicCorrection:           274.439   274.439   3.3% ||
  Distribute overlap matrix:         3.278     3.278   0.0% |
  Orbital Layouts:                2824.208  2824.208  33.8% |-------------|
  Potential matrix:                881.547   881.547  10.5% |---|
  Sum over cells:                   73.739    73.739   0.9% |
ST tci:                              1.837     1.837   0.0% |
Set symmetry:                        0.000     0.000   0.0% |
TCI: Evaluate splines:               0.617     0.617   0.0% |
mktci:                               0.047     0.047   0.0% |
Other:                               4.994     4.994   0.1% |
-----------------------------------------------------------
Total:                                      8363.565 100.0%

Memory usage: 4.71 GiB
Date: Mon Mar  2 19:05:55 2026
