
  ___ ___ ___ _ _ _  
 |   |   |_  | | | | 
 | | | | | . | | | | 
 |__ |  _|___|_____|  25.7.0
 |___|_|             

User:   ubuntu@third-test
Date:   Fri Feb 20 02:50:19 2026
Arch:   x86_64
Pid:    2718679
CWD:    /mnt/vdd1/work/cemea/fairchem/src/fairchem/applications/ocx/mo_h_adsorption_workflow
Python: 3.10.16
gpaw:   /home/ubuntu/.pyenv/versions/cemea-env/lib/python3.10/site-packages/gpaw
_gpaw:  /home/ubuntu/.pyenv/versions/cemea-env/lib/python3.10/site-packages/
        _gpaw.cpython-310-x86_64-linux-gnu.so
ase:    /home/ubuntu/.pyenv/versions/cemea-env/lib/python3.10/site-packages/ase (version 3.27.0)
numpy:  /home/ubuntu/.pyenv/versions/cemea-env/lib/python3.10/site-packages/numpy (version 2.2.6)
scipy:  /home/ubuntu/.pyenv/versions/cemea-env/lib/python3.10/site-packages/scipy (version 1.15.3)
libxc:  2.x.y
units:  Angstrom and eV
cores: 1
OpenMP: False
OMP_NUM_THREADS: 1

Input parameters:
  basis: dzp
  convergence: {density: 0.0001,
                eigenstates: 1e-05,
                energy: 1e-05}
  kpts: [4 4 1]
  mode: lcao

System changes: positions, numbers, cell, pbc, initial_charges, initial_magmoms 

Initialize ...

species:
  Mo:
    name: Molybdenum
    id: ac24daaf086600a00ce6d19a74574df1
    Z: 42.0
    valence: 14
    core: 28
    charge: 0.0
    file: /home/ubuntu/.pyenv/versions/cemea-env/lib/python3.10/site-packages/gpaw_data/setups/Mo.LDA.gz
    compensation charges: {type: gauss,
                           rc: 0.38,
                           lmax: 2}
    cutoffs: {filter: 2.16,
              core: 1.42}
    projectors:
      #              energy  rcut
      - 4s(2.00)   -64.384   1.238
      - 5s(1.00)    -4.319   1.238
      - 4p(6.00)   -38.595   1.296
      - 5p(0.00)    -1.161   1.296
      - 4d(5.00)    -3.933   1.296
      -  d          23.278   1.296
  
    # LCAO basis set for Mo:
    #   Name: dzp
    #   File: /home/ubuntu/.pyenv/versions/cemea-env/lib/python3.10/site-packages/gpaw_data/setups/Mo.dzp.basis.gz
    #   Number of radial functions: 11
    #   Number of spherical harmonics: 29
    #     l=0, rc=3.5469 Bohr: 4s-sz confined orbital
    #     l=0, rc=10.0469 Bohr: 5s-sz confined orbital
    #     l=1, rc=4.0781 Bohr: 4p-sz confined orbital
    #     l=1, rc=14.0938 Bohr: 5p-sz confined orbital
    #     l=2, rc=7.2031 Bohr: 4d-sz confined orbital
    #     l=0, rc=2.1250 Bohr: 4s-dz split-valence wave
    #     l=0, rc=6.1250 Bohr: 5s-dz split-valence wave
    #     l=1, rc=2.5469 Bohr: 4p-dz split-valence wave
    #     l=1, rc=8.7656 Bohr: 5p-dz split-valence wave
    #     l=2, rc=4.2344 Bohr: 4d-dz split-valence wave
    #     l=1, rc=10.0469 Bohr: p-type Gaussian polarization
    #   Number of RI-basis functions 0

  S:
    name: Sulfur
    id: a5eb49d7597a2879c13719b04c71318f
    Z: 16.0
    valence: 6
    core: 10
    charge: 0.0
    file: /home/ubuntu/.pyenv/versions/cemea-env/lib/python3.10/site-packages/gpaw_data/setups/S.LDA.gz
    compensation charges: {type: gauss,
                           rc: 0.24,
                           lmax: 2}
    cutoffs: {filter: 1.77,
              core: 1.66}
    projectors:
      #              energy  rcut
      - 3s(2.00)   -17.278   0.974
      - 3p(4.00)    -7.106   0.979
      -  s           9.933   0.974
      -  p          20.105   0.979
      -  d           0.000   0.900
  
    # LCAO basis set for S:
    #   Name: dzp
    #   File: /home/ubuntu/.pyenv/versions/cemea-env/lib/python3.10/site-packages/gpaw_data/setups/S.dzp.basis.gz
    #   Number of radial functions: 5
    #   Number of spherical harmonics: 13
    #     l=0, rc=5.5156 Bohr: 3s-sz confined orbital
    #     l=1, rc=6.9375 Bohr: 3p-sz confined orbital
    #     l=0, rc=3.0469 Bohr: 3s-dz split-valence wave
    #     l=1, rc=3.9375 Bohr: 3p-dz split-valence wave
    #     l=2, rc=6.9375 Bohr: d-type Gaussian polarization
    #   Number of RI-basis functions 0

  H:
    name: Hydrogen
    id: 4766778ce56282eaa64abeb28b7c1de3
    Z: 1.0
    valence: 1
    core: 0
    charge: 0.0
    file: /home/ubuntu/.pyenv/versions/cemea-env/lib/python3.10/site-packages/gpaw_data/setups/H.LDA.gz
    compensation charges: {type: gauss,
                           rc: 0.15,
                           lmax: 2}
    cutoffs: {filter: 0.85,
              core: 0.53}
    projectors:
      #              energy  rcut
      - 1s(1.00)    -6.353   0.476
      -  s          20.858   0.476
      -  p           0.000   0.476
  
    # LCAO basis set for H:
    #   Name: dzp
    #   File: /home/ubuntu/.pyenv/versions/cemea-env/lib/python3.10/site-packages/gpaw_data/setups/H.dzp.basis.gz
    #   Number of radial functions: 3
    #   Number of spherical harmonics: 5
    #     l=0, rc=6.4219 Bohr: 1s-sz confined orbital
    #     l=0, rc=3.6094 Bohr: 1s-dz split-valence wave
    #     l=1, rc=6.4219 Bohr: p-type Gaussian polarization
    #   Number of RI-basis functions 0

Reference energy: -3928432.388805  # eV

Spin-paired calculation

Convergence criteria:
 Maximum [total energy] change in last 3 cyles: 1e-05 eV / valence electron
 Maximum integral of absolute [dens]ity change: 0.0001 electrons / valence electron
 Maximum integral of absolute [eigenst]ate change: 1e-05 eV^2 / valence electron
 Maximum number of scf [iter]ations: 333
 (Square brackets indicate name in SCF output, whereas a 'c' in
 the SCF output indicates the quantity has converged.)

Symmetries present (total): 1

  ( 1  0  0)
  ( 0  1  0)
  ( 0  0  1)

16 k-points: 4 x 4 x 1 Monkhorst-Pack grid
8 k-points in the irreducible part of the Brillouin zone
       k-points in crystal coordinates                weights
   0:     0.12500000   -0.37500000    0.00000000          2/16
   1:     0.12500000   -0.12500000    0.00000000          2/16
   2:     0.12500000    0.12500000    0.00000000          2/16
   3:     0.12500000    0.37500000    0.00000000          2/16
   4:     0.37500000   -0.37500000    0.00000000          2/16
   5:     0.37500000   -0.12500000    0.00000000          2/16
   6:     0.37500000    0.12500000    0.00000000          2/16
   7:     0.37500000    0.37500000    0.00000000          2/16

Wave functions: LCAO
  Diagonalizer: Serial LAPACK
  Atomic Correction: dense with blas
  Data-type: complex
 

Occupation numbers: Fermi-Dirac:
  width: 0.1000  # eV
 

Eigensolver
   LCAO using direct dense diagonalizer 

Densities:
  Coarse grid: 212*40*96 grid
  Fine grid: 424*80*192 grid
  Total Charge: 0.000000 

Density mixing:
  Method: separate
  Backend: pulay
  Linear mixing parameter: 0.05
  old densities: 5
  Damping of long wavelength oscillations: 50 

Hamiltonian:
  XC and Coulomb potentials evaluated on a 424*80*192 grid
  Using the LDA Exchange-Correlation functional
  Interpolation: tri-quintic (5. degree polynomial)
  Poisson solver: FastPoissonSolver using
    Stencil: 8*3+1=25 point O(h^6) finite-difference Laplacian
    FFT axes: [np.int64(0), np.int64(1), np.int64(2)]
    FST axes: []
 

Memory estimate:
  Process memory now: 3054.01 MiB
  Calculator: 1691.42 MiB
    Density: 460.37 MiB
      Arrays: 161.48 MiB
      Localized functions: 236.78 MiB
      Mixer: 62.11 MiB
    Hamiltonian: 122.64 MiB
      Arrays: 105.59 MiB
      XC: 0.00 MiB
      Poisson: 0.00 MiB
      vbar: 17.06 MiB
    Wavefunctions: 1108.40 MiB
      C [qnM]: 92.67 MiB
      S, T [2 x qmm]: 647.86 MiB
      P [aqMi]: 16.14 MiB
      BasisFunctions: 351.73 MiB
      Eigensolver: 0.00 MiB

Total number of cores used: 1

Number of atoms: 89
Number of atomic orbitals: 1629
Number of bands in calculation: 466
Number of valence electrons: 769
Bands to converge: occupied

... initialized

Initializing position-dependent things.

Density initialized from atomic densities
                                                                                                  
                                                                                                  
                                                                                                  
                                                                                                  
                                                                                                  
                   S       S       S       S      S       S       S      S       S                
                                                 H                                                
              S       S      S       S       S      S       S       S       S      S              
           Mo     Mo      Mo      Mo     Mo      Mo      Mo      Mo     Mo      Mo                
               SS      SS     SS      SS      SS      SS     SS      SS      SS     SS            
             Mo     Mo      Mo      Mo      Mo     Mo      Mo      Mo     Mo      Mo              
                 S       S       S      S       S       S      S       S       S       S          
               Mo      Mo     Mo      Mo      Mo     Mo      Mo      Mo      Mo     Mo            
                   S       S       S      S       S       S       S      S       S                
                                                                                                  
                                                                                                  
                                                                                                  
                                                                                                  

Atomic positions and initial magnetic moments

Positions:
   0 Mo     9.237604    0.000000    9.475400    ( 0.0000,  0.0000,  0.0000)
   1 S      9.237604    1.824427   10.950800    ( 0.0000,  0.0000,  0.0000)
   2 S     10.817604    0.912213    8.000000    ( 0.0000,  0.0000,  0.0000)
   3 Mo     7.657604    2.736640    9.475400    ( 0.0000,  0.0000,  0.0000)
   4 S      7.657604    4.561067   10.950800    ( 0.0000,  0.0000,  0.0000)
   5 S      9.237604    3.648854    8.000000    ( 0.0000,  0.0000,  0.0000)
   6 Mo     6.077604    5.473281    9.475400    ( 0.0000,  0.0000,  0.0000)
   7 S      7.657604    6.385494    8.000000    ( 0.0000,  0.0000,  0.0000)
   8 Mo    12.397604    0.000000    9.475400    ( 0.0000,  0.0000,  0.0000)
   9 S     12.397604    1.824427   10.950800    ( 0.0000,  0.0000,  0.0000)
  10 S     13.977604    0.912213    8.000000    ( 0.0000,  0.0000,  0.0000)
  11 Mo    10.817604    2.736640    9.475400    ( 0.0000,  0.0000,  0.0000)
  12 S     10.817604    4.561067   10.950800    ( 0.0000,  0.0000,  0.0000)
  13 S     12.397604    3.648854    8.000000    ( 0.0000,  0.0000,  0.0000)
  14 Mo     9.237604    5.473281    9.475400    ( 0.0000,  0.0000,  0.0000)
  15 S      9.237604    7.297707   10.950800    ( 0.0000,  0.0000,  0.0000)
  16 S     10.817604    6.385494    8.000000    ( 0.0000,  0.0000,  0.0000)
  17 Mo    15.557604    0.000000    9.475400    ( 0.0000,  0.0000,  0.0000)
  18 S     15.557604    1.824427   10.950800    ( 0.0000,  0.0000,  0.0000)
  19 S     17.137604    0.912213    8.000000    ( 0.0000,  0.0000,  0.0000)
  20 Mo    13.977604    2.736640    9.475400    ( 0.0000,  0.0000,  0.0000)
  21 S     13.977604    4.561067   10.950800    ( 0.0000,  0.0000,  0.0000)
  22 S     15.557604    3.648854    8.000000    ( 0.0000,  0.0000,  0.0000)
  23 Mo    12.397604    5.473281    9.475400    ( 0.0000,  0.0000,  0.0000)
  24 S     12.397604    7.297707   10.950800    ( 0.0000,  0.0000,  0.0000)
  25 S     13.977604    6.385494    8.000000    ( 0.0000,  0.0000,  0.0000)
  26 Mo    18.717604    0.000000    9.475400    ( 0.0000,  0.0000,  0.0000)
  27 S     18.717604    1.824427   10.950800    ( 0.0000,  0.0000,  0.0000)
  28 S     20.297604    0.912213    8.000000    ( 0.0000,  0.0000,  0.0000)
  29 Mo    17.137604    2.736640    9.475400    ( 0.0000,  0.0000,  0.0000)
  30 S     17.137604    4.561067   10.950800    ( 0.0000,  0.0000,  0.0000)
  31 S     18.717604    3.648854    8.000000    ( 0.0000,  0.0000,  0.0000)
  32 Mo    15.557604    5.473281    9.475400    ( 0.0000,  0.0000,  0.0000)
  33 S     15.557604    7.297707   10.950800    ( 0.0000,  0.0000,  0.0000)
  34 S     17.137604    6.385494    8.000000    ( 0.0000,  0.0000,  0.0000)
  35 Mo    21.877604    0.000000    9.475400    ( 0.0000,  0.0000,  0.0000)
  36 S     21.877604    1.824427   10.950800    ( 0.0000,  0.0000,  0.0000)
  37 S     23.457604    0.912213    8.000000    ( 0.0000,  0.0000,  0.0000)
  38 Mo    20.297604    2.736640    9.475400    ( 0.0000,  0.0000,  0.0000)
  39 S     20.297604    4.561067   10.950800    ( 0.0000,  0.0000,  0.0000)
  40 S     21.877604    3.648854    8.000000    ( 0.0000,  0.0000,  0.0000)
  41 Mo    18.717604    5.473281    9.475400    ( 0.0000,  0.0000,  0.0000)
  42 S     18.717604    7.297707   10.950800    ( 0.0000,  0.0000,  0.0000)
  43 S     20.297604    6.385494    8.000000    ( 0.0000,  0.0000,  0.0000)
  44 Mo    25.037604    0.000000    9.475400    ( 0.0000,  0.0000,  0.0000)
  45 S     25.037604    1.824427   10.950800    ( 0.0000,  0.0000,  0.0000)
  46 S     26.617604    0.912213    8.000000    ( 0.0000,  0.0000,  0.0000)
  47 Mo    23.457604    2.736640    9.475400    ( 0.0000,  0.0000,  0.0000)
  48 S     23.457604    4.561067   10.950800    ( 0.0000,  0.0000,  0.0000)
  49 S     25.037604    3.648854    8.000000    ( 0.0000,  0.0000,  0.0000)
  50 Mo    21.877604    5.473281    9.475400    ( 0.0000,  0.0000,  0.0000)
  51 S     21.877604    7.297707   10.950800    ( 0.0000,  0.0000,  0.0000)
  52 S     23.457604    6.385494    8.000000    ( 0.0000,  0.0000,  0.0000)
  53 Mo    28.197604    0.000000    9.475400    ( 0.0000,  0.0000,  0.0000)
  54 S     28.197604    1.824427   10.950800    ( 0.0000,  0.0000,  0.0000)
  55 S     29.777604    0.912213    8.000000    ( 0.0000,  0.0000,  0.0000)
  56 Mo    26.617604    2.736640    9.475400    ( 0.0000,  0.0000,  0.0000)
  57 S     26.617604    4.561067   10.950800    ( 0.0000,  0.0000,  0.0000)
  58 S     28.197604    3.648854    8.000000    ( 0.0000,  0.0000,  0.0000)
  59 Mo    25.037604    5.473281    9.475400    ( 0.0000,  0.0000,  0.0000)
  60 S     25.037604    7.297707   10.950800    ( 0.0000,  0.0000,  0.0000)
  61 S     26.617604    6.385494    8.000000    ( 0.0000,  0.0000,  0.0000)
  62 Mo    31.357604    0.000000    9.475400    ( 0.0000,  0.0000,  0.0000)
  63 S     31.357604    1.824427   10.950800    ( 0.0000,  0.0000,  0.0000)
  64 S     32.937604    0.912213    8.000000    ( 0.0000,  0.0000,  0.0000)
  65 Mo    29.777604    2.736640    9.475400    ( 0.0000,  0.0000,  0.0000)
  66 S     29.777604    4.561067   10.950800    ( 0.0000,  0.0000,  0.0000)
  67 S     31.357604    3.648854    8.000000    ( 0.0000,  0.0000,  0.0000)
  68 Mo    28.197604    5.473281    9.475400    ( 0.0000,  0.0000,  0.0000)
  69 S     28.197604    7.297707   10.950800    ( 0.0000,  0.0000,  0.0000)
  70 S     29.777604    6.385494    8.000000    ( 0.0000,  0.0000,  0.0000)
  71 Mo    34.517604    0.000000    9.475400    ( 0.0000,  0.0000,  0.0000)
  72 S     34.517604    1.824427   10.950800    ( 0.0000,  0.0000,  0.0000)
  73 S     36.097604    0.912213    8.000000    ( 0.0000,  0.0000,  0.0000)
  74 Mo    32.937604    2.736640    9.475400    ( 0.0000,  0.0000,  0.0000)
  75 S     32.937604    4.561067   10.950800    ( 0.0000,  0.0000,  0.0000)
  76 S     34.517604    3.648854    8.000000    ( 0.0000,  0.0000,  0.0000)
  77 Mo    31.357604    5.473281    9.475400    ( 0.0000,  0.0000,  0.0000)
  78 S     31.357604    7.297707   10.950800    ( 0.0000,  0.0000,  0.0000)
  79 S     32.937604    6.385494    8.000000    ( 0.0000,  0.0000,  0.0000)
  80 Mo    37.677604    0.000000    9.475400    ( 0.0000,  0.0000,  0.0000)
  81 S     37.677604    1.824427   10.950800    ( 0.0000,  0.0000,  0.0000)
  82 Mo    36.097604    2.736640    9.475400    ( 0.0000,  0.0000,  0.0000)
  83 S     36.097604    4.561067   10.950800    ( 0.0000,  0.0000,  0.0000)
  84 S     37.677604    3.648854    8.000000    ( 0.0000,  0.0000,  0.0000)
  85 Mo    34.517604    5.473281    9.475400    ( 0.0000,  0.0000,  0.0000)
  86 S     34.517604    7.297707   10.950800    ( 0.0000,  0.0000,  0.0000)
  87 S     36.097604    6.385494    8.000000    ( 0.0000,  0.0000,  0.0000)
  88 H     22.398286    3.638488   12.450800    ( 0.0000,  0.0000,  0.0000)

Unit cell:
           periodic     x           y           z      points  spacing
  1. axis:    yes   49.021875    0.000000    0.000000   212     0.2003
  2. axis:    yes   -4.740000    8.209921    0.000000    40     0.2052
  3. axis:    yes    0.000000    0.000000   18.950800    96     0.1974

  Lengths:  49.021875   9.480000  18.950800
  Angles:   90.000000  90.000000 120.000000

Effective grid spacing dv^(1/3) = 0.2108

     iter     time        total  log10-change:
                         energy   eigst   dens
iter:   1 03:11:29  -688.379249        c
iter:   2 03:32:41  -766.950809        c -1.17
iter:   3 03:54:05  -675.305144        c -1.04
iter:   4 04:16:57  -664.204871        c -1.22
iter:   5 04:38:47  -655.319535        c -1.27
iter:   6 05:00:37  -652.259892        c -1.33
iter:   7 05:22:14  -649.237041        c -1.38
iter:   8 05:43:58  -690.740000        c -1.43
iter:   9 06:05:28  -655.987684        c -1.20
iter:  10 06:27:31  -649.191632        c -1.40
iter:  11 06:49:20  -645.378947        c -1.58
iter:  12 07:11:15  -645.535358        c -1.80
iter:  13 07:32:58  -644.832676        c -1.82
