
  ___ ___ ___ _ _ _  
 |   |   |_  | | | | 
 | | | | | . | | | | 
 |__ |  _|___|_____|  25.7.0
 |___|_|             

User:   mikei@Z790-AORUS-ELITE-AX
Date:   Mon Feb 23 02:49:55 2026
Arch:   x86_64
Pid:    89048
CWD:    /home/mikei/Dokumenty/code/cemea/ocx
Python: 3.10.16
gpaw:   /home/mikei/.pyenv/versions/cemea-env/lib/python3.10/site-packages/gpaw
_gpaw:  /home/mikei/.pyenv/versions/cemea-env/lib/python3.10/site-packages/
        _gpaw.cpython-310-x86_64-linux-gnu.so
ase:    /home/mikei/.pyenv/versions/cemea-env/lib/python3.10/site-packages/ase (version 3.27.0)
numpy:  /home/mikei/.pyenv/versions/cemea-env/lib/python3.10/site-packages/numpy (version 2.2.6)
scipy:  /home/mikei/.pyenv/versions/cemea-env/lib/python3.10/site-packages/scipy (version 1.15.3)
libxc:  2.x.y
units:  Angstrom and eV
cores: 1
OpenMP: False
OMP_NUM_THREADS: 1

Input parameters:
  basis: dzp
  convergence: {density: 0.0001,
                eigenstates: 1e-05,
                energy: 1e-05}
  kpts: [4 4 1]
  mode: lcao

System changes: positions, numbers, cell, pbc, initial_charges, initial_magmoms 

Initialize ...

species:
  Ni:
    name: Nickel
    id: 1802175e8de9ea26d9f4394ec1a7d564
    Z: 28.0
    valence: 16
    core: 12
    charge: 0.0
    file: /home/mikei/.pyenv/versions/cemea-env/lib/python3.10/site-packages/gpaw_data/setups/Ni.LDA.gz
    compensation charges: {type: gauss,
                           rc: 0.36,
                           lmax: 2}
    cutoffs: {filter: 2.14,
              core: 1.98}
    projectors:
      #              energy  rcut
      - 4s(2.00)    -5.858   1.164
      - 3p(6.00)   -71.266   1.207
      - 4p(0.00)    -1.338   1.207
      - 3d(8.00)    -9.141   1.138
      -  s          21.353   1.164
      -  d          18.071   1.138
  
    # LCAO basis set for Ni:
    #   Name: dzp
    #   File: /home/mikei/.pyenv/versions/cemea-env/lib/python3.10/site-packages/gpaw_data/setups/Ni.dzp.basis.gz
    #   Number of radial functions: 9
    #   Number of spherical harmonics: 27
    #     l=0, rc=8.5156 Bohr: 4s-sz confined orbital
    #     l=1, rc=2.9375 Bohr: 3p-sz confined orbital
    #     l=1, rc=12.4062 Bohr: 4p-sz confined orbital
    #     l=2, rc=4.6875 Bohr: 3d-sz confined orbital
    #     l=0, rc=4.9688 Bohr: 4s-dz split-valence wave
    #     l=1, rc=2.0781 Bohr: 3p-dz split-valence wave
    #     l=1, rc=7.5469 Bohr: 4p-dz split-valence wave
    #     l=2, rc=2.9375 Bohr: 3d-dz split-valence wave
    #     l=1, rc=8.5156 Bohr: p-type Gaussian polarization
    #   Number of RI-basis functions 0

  Mo:
    name: Molybdenum
    id: ac24daaf086600a00ce6d19a74574df1
    Z: 42.0
    valence: 14
    core: 28
    charge: 0.0
    file: /home/mikei/.pyenv/versions/cemea-env/lib/python3.10/site-packages/gpaw_data/setups/Mo.LDA.gz
    compensation charges: {type: gauss,
                           rc: 0.38,
                           lmax: 2}
    cutoffs: {filter: 2.16,
              core: 1.42}
    projectors:
      #              energy  rcut
      - 4s(2.00)   -64.384   1.238
      - 5s(1.00)    -4.319   1.238
      - 4p(6.00)   -38.595   1.296
      - 5p(0.00)    -1.161   1.296
      - 4d(5.00)    -3.933   1.296
      -  d          23.278   1.296
  
    # LCAO basis set for Mo:
    #   Name: dzp
    #   File: /home/mikei/.pyenv/versions/cemea-env/lib/python3.10/site-packages/gpaw_data/setups/Mo.dzp.basis.gz
    #   Number of radial functions: 11
    #   Number of spherical harmonics: 29
    #     l=0, rc=3.5469 Bohr: 4s-sz confined orbital
    #     l=0, rc=10.0469 Bohr: 5s-sz confined orbital
    #     l=1, rc=4.0781 Bohr: 4p-sz confined orbital
    #     l=1, rc=14.0938 Bohr: 5p-sz confined orbital
    #     l=2, rc=7.2031 Bohr: 4d-sz confined orbital
    #     l=0, rc=2.1250 Bohr: 4s-dz split-valence wave
    #     l=0, rc=6.1250 Bohr: 5s-dz split-valence wave
    #     l=1, rc=2.5469 Bohr: 4p-dz split-valence wave
    #     l=1, rc=8.7656 Bohr: 5p-dz split-valence wave
    #     l=2, rc=4.2344 Bohr: 4d-dz split-valence wave
    #     l=1, rc=10.0469 Bohr: p-type Gaussian polarization
    #   Number of RI-basis functions 0

  C:
    name: Carbon
    id: d60576a1f549371a163e72552ca58787
    Z: 6.0
    valence: 4
    core: 2
    charge: 0.0
    file: /home/mikei/.pyenv/versions/cemea-env/lib/python3.10/site-packages/gpaw_data/setups/C.LDA.gz
    compensation charges: {type: gauss,
                           rc: 0.20,
                           lmax: 2}
    cutoffs: {filter: 1.14,
              core: 1.14}
    projectors:
      #              energy  rcut
      - 2s(2.00)   -13.639   0.635
      - 2p(2.00)    -5.414   0.635
      -  s          13.573   0.635
      -  p          21.797   0.635
      -  d           0.000   0.635
  
    # LCAO basis set for C:
    #   Name: dzp
    #   File: /home/mikei/.pyenv/versions/cemea-env/lib/python3.10/site-packages/gpaw_data/setups/C.dzp.basis.gz
    #   Number of radial functions: 5
    #   Number of spherical harmonics: 13
    #     l=0, rc=5.5469 Bohr: 2s-sz confined orbital
    #     l=1, rc=6.6719 Bohr: 2p-sz confined orbital
    #     l=0, rc=3.0312 Bohr: 2s-dz split-valence wave
    #     l=1, rc=3.7500 Bohr: 2p-dz split-valence wave
    #     l=2, rc=6.6719 Bohr: d-type Gaussian polarization
    #   Number of RI-basis functions 0

  Ag:
    name: Silver
    id: 5bcdc129af383d1b52b015d30ddad325
    Z: 47.0
    valence: 17
    core: 30
    charge: 0.0
    file: /home/mikei/.pyenv/versions/cemea-env/lib/python3.10/site-packages/gpaw_data/setups/Ag.LDA.gz
    compensation charges: {type: gauss,
                           rc: 0.40,
                           lmax: 2}
    cutoffs: {filter: 2.35,
              core: 2.19}
    projectors:
      #              energy  rcut
      - 5s(1.00)    -4.708   1.286
      - 4p(6.00)   -58.678   1.328
      - 5p(0.00)    -0.844   1.328
      - 4d(10.00)    -7.664   1.180
      -  s          22.503   1.286
      -  d          19.547   1.180
  
    # LCAO basis set for Ag:
    #   Name: dzp
    #   File: /home/mikei/.pyenv/versions/cemea-env/lib/python3.10/site-packages/gpaw_data/setups/Ag.dzp.basis.gz
    #   Number of radial functions: 9
    #   Number of spherical harmonics: 27
    #     l=0, rc=9.2812 Bohr: 5s-sz confined orbital
    #     l=1, rc=3.3750 Bohr: 4p-sz confined orbital
    #     l=1, rc=14.2344 Bohr: 5p-sz confined orbital
    #     l=2, rc=5.4531 Bohr: 4d-sz confined orbital
    #     l=0, rc=5.5156 Bohr: 5s-dz split-valence wave
    #     l=1, rc=2.3281 Bohr: 4p-dz split-valence wave
    #     l=1, rc=8.7656 Bohr: 5p-dz split-valence wave
    #     l=2, rc=3.2656 Bohr: 4d-dz split-valence wave
    #     l=1, rc=9.2812 Bohr: p-type Gaussian polarization
    #   Number of RI-basis functions 0

  H:
    name: Hydrogen
    id: 4766778ce56282eaa64abeb28b7c1de3
    Z: 1.0
    valence: 1
    core: 0
    charge: 0.0
    file: /home/mikei/.pyenv/versions/cemea-env/lib/python3.10/site-packages/gpaw_data/setups/H.LDA.gz
    compensation charges: {type: gauss,
                           rc: 0.15,
                           lmax: 2}
    cutoffs: {filter: 0.85,
              core: 0.53}
    projectors:
      #              energy  rcut
      - 1s(1.00)    -6.353   0.476
      -  s          20.858   0.476
      -  p           0.000   0.476
  
    # LCAO basis set for H:
    #   Name: dzp
    #   File: /home/mikei/.pyenv/versions/cemea-env/lib/python3.10/site-packages/gpaw_data/setups/H.dzp.basis.gz
    #   Number of radial functions: 3
    #   Number of spherical harmonics: 5
    #     l=0, rc=6.4219 Bohr: 1s-sz confined orbital
    #     l=0, rc=3.6094 Bohr: 1s-dz split-valence wave
    #     l=1, rc=6.4219 Bohr: p-type Gaussian polarization
    #   Number of RI-basis functions 0

Reference energy: -2948925.423740  # eV

Spin-paired calculation

Convergence criteria:
 Maximum [total energy] change in last 3 cyles: 1e-05 eV / valence electron
 Maximum integral of absolute [dens]ity change: 0.0001 electrons / valence electron
 Maximum integral of absolute [eigenst]ate change: 1e-05 eV^2 / valence electron
 Maximum number of scf [iter]ations: 333
 (Square brackets indicate name in SCF output, whereas a 'c' in
 the SCF output indicates the quantity has converged.)

Symmetries present (total): 2

  ( 1  0  0)  ( 0  1  0)
  ( 0  1  0)  ( 1  0  0)
  ( 0  0  1)  ( 0  0  1)

16 k-points: 4 x 4 x 1 Monkhorst-Pack grid
6 k-points in the irreducible part of the Brillouin zone
       k-points in crystal coordinates                weights
   0:     0.12500000   -0.12500000    0.00000000          2/16
   1:     0.12500000    0.12500000    0.00000000          2/16
   2:     0.37500000   -0.37500000    0.00000000          2/16
   3:     0.37500000   -0.12500000    0.00000000          4/16
   4:     0.37500000    0.12500000    0.00000000          4/16
   5:     0.37500000    0.37500000    0.00000000          2/16

Wave functions: LCAO
  Diagonalizer: Serial LAPACK
  Atomic Correction: dense with blas
  Data-type: complex
 

Occupation numbers: Fermi-Dirac:
  width: 0.1000  # eV
 

Eigensolver
   LCAO using direct dense diagonalizer 

Densities:
  Coarse grid: 36*36*128 grid
  Fine grid: 72*72*256 grid
  Total Charge: 0.000000 

Density mixing:
  Method: separate
  Backend: pulay
  Linear mixing parameter: 0.05
  old densities: 5
  Damping of long wavelength oscillations: 50 

Hamiltonian:
  XC and Coulomb potentials evaluated on a 72*72*256 grid
  Using the LDA Exchange-Correlation functional
  Interpolation: tri-quintic (5. degree polynomial)
  Poisson solver: FastPoissonSolver using
    Stencil: 6*3+1=19 point O(h^6) finite-difference Laplacian
    FFT axes: [np.int64(0), np.int64(1), np.int64(2)]
    FST axes: []
 

Memory estimate:
  Process memory now: 4595.48 MiB
  Calculator: 1009.53 MiB
    Density: 242.36 MiB
      Arrays: 32.91 MiB
      Localized functions: 196.80 MiB
      Mixer: 12.66 MiB
    Hamiltonian: 36.16 MiB
      Arrays: 21.52 MiB
      XC: 0.00 MiB
      Poisson: 0.00 MiB
      vbar: 14.64 MiB
    Wavefunctions: 731.01 MiB
      C [qnM]: 58.66 MiB
      S, T [2 x qmm]: 343.17 MiB
      P [aqMi]: 7.21 MiB
      BasisFunctions: 321.97 MiB
      Eigensolver: 0.00 MiB

Total number of cores used: 1

Number of atoms: 53
Number of atomic orbitals: 1369
Number of bands in calculation: 468
Number of valence electrons: 773
Bands to converge: occupied

... initialized

Initializing position-dependent things.

Density initialized from atomic densities
      .-----------------.  
     /|                 |  
    / |                 |  
   /  |                 |  
  /   |                 |  
 *    |                 |  
 |    |                 |  
 |    |                 |  
 |    |                 |  
 |    |    H            |  
 |    |  Ag    Ag       |  
 |    |Ag Mo Ag     Mo  |  
 |    |                 |  
 |    |Mo C      Mo C   |  
 |  Mo|       Mo        |  
 |    |                 |  
 |    |C         C      |  
 Mo Ni|   NMo   Ni      |  
 | Ni | NNi   NNi   Ni  |  
 |    |                 |  
 Ni   NNi   NNi   Ni    |  
 |  NNi   NNi   NNi     |  
 | Ni | NNi   NNi   Ni  |  
 |    |                 |  
 Ni   NNi   NNi   Ni    |  
 |   Ni    Ni    Ni     |  
 |    |                 |  
 |    |                 |  
 |    |                 |  
 |    |                 |  
 |    |                 |  
 |    .-----------------.  
 |   /                 /   
 |  /                 /    
 | /                 /     
 |/                 /      
 *-----------------*       

Atomic positions and initial magnetic moments

Positions:
   0 Ni     1.244508    1.244508    8.000000    ( 0.0000,  0.0000,  0.0000)
   1 Ni     3.733524    1.244508    8.000000    ( 0.0000,  0.0000,  0.0000)
   2 Ni     6.222540    1.244508    8.000000    ( 0.0000,  0.0000,  0.0000)
   3 Ni     1.244508    3.733524    8.000000    ( 0.0000,  0.0000,  0.0000)
   4 Ni     3.733524    3.733524    8.000000    ( 0.0000,  0.0000,  0.0000)
   5 Ni     6.222540    3.733524    8.000000    ( 0.0000,  0.0000,  0.0000)
   6 Ni     1.244508    6.222540    8.000000    ( 0.0000,  0.0000,  0.0000)
   7 Ni     3.733524    6.222540    8.000000    ( 0.0000,  0.0000,  0.0000)
   8 Ni     6.222540    6.222540    8.000000    ( 0.0000,  0.0000,  0.0000)
   9 Ni     0.000000    0.000000    9.760000    ( 0.0000,  0.0000,  0.0000)
  10 Ni     2.489016    0.000000    9.760000    ( 0.0000,  0.0000,  0.0000)
  11 Ni     4.978032    0.000000    9.760000    ( 0.0000,  0.0000,  0.0000)
  12 Ni     0.000000    2.489016    9.760000    ( 0.0000,  0.0000,  0.0000)
  13 Ni     2.489016    2.489016    9.760000    ( 0.0000,  0.0000,  0.0000)
  14 Ni     4.978032    2.489016    9.760000    ( 0.0000,  0.0000,  0.0000)
  15 Ni     0.000000    4.978032    9.760000    ( 0.0000,  0.0000,  0.0000)
  16 Ni     2.489016    4.978032    9.760000    ( 0.0000,  0.0000,  0.0000)
  17 Ni     4.978032    4.978032    9.760000    ( 0.0000,  0.0000,  0.0000)
  18 Ni     1.244508    1.244508   11.520000    ( 0.0000,  0.0000,  0.0000)
  19 Ni     3.733524    1.244508   11.520000    ( 0.0000,  0.0000,  0.0000)
  20 Ni     6.222540    1.244508   11.520000    ( 0.0000,  0.0000,  0.0000)
  21 Ni     1.244508    3.733524   11.520000    ( 0.0000,  0.0000,  0.0000)
  22 Ni     3.733524    3.733524   11.520000    ( 0.0000,  0.0000,  0.0000)
  23 Ni     6.222540    3.733524   11.520000    ( 0.0000,  0.0000,  0.0000)
  24 Ni     1.244508    6.222540   11.520000    ( 0.0000,  0.0000,  0.0000)
  25 Ni     3.733524    6.222540   11.520000    ( 0.0000,  0.0000,  0.0000)
  26 Ni     6.222540    6.222540   11.520000    ( 0.0000,  0.0000,  0.0000)
  27 Ni     0.000000    0.000000   13.280000    ( 0.0000,  0.0000,  0.0000)
  28 Ni     2.489016    0.000000   13.280000    ( 0.0000,  0.0000,  0.0000)
  29 Ni     4.978032    0.000000   13.280000    ( 0.0000,  0.0000,  0.0000)
  30 Ni     0.000000    2.489016   13.280000    ( 0.0000,  0.0000,  0.0000)
  31 Ni     2.489016    2.489016   13.280000    ( 0.0000,  0.0000,  0.0000)
  32 Ni     4.978032    2.489016   13.280000    ( 0.0000,  0.0000,  0.0000)
  33 Ni     0.000000    4.978032   13.280000    ( 0.0000,  0.0000,  0.0000)
  34 Ni     2.489016    4.978032   13.280000    ( 0.0000,  0.0000,  0.0000)
  35 Ni     4.978032    4.978032   13.280000    ( 0.0000,  0.0000,  0.0000)
  36 Mo     0.000000    0.000000   15.480000    ( 0.0000,  0.0000,  0.0000)
  37 Mo     2.060000    2.060000   17.540000    ( 0.0000,  0.0000,  0.0000)
  38 C      2.060000    2.060000   15.480000    ( 0.0000,  0.0000,  0.0000)
  39 Mo     0.000000    4.120000   15.480000    ( 0.0000,  0.0000,  0.0000)
  40 Mo     2.060000    6.180000   17.540000    ( 0.0000,  0.0000,  0.0000)
  41 C      2.060000    6.180000   15.480000    ( 0.0000,  0.0000,  0.0000)
  42 Mo     4.120000    0.000000   15.480000    ( 0.0000,  0.0000,  0.0000)
  43 Mo     6.180000    2.060000   17.540000    ( 0.0000,  0.0000,  0.0000)
  44 C      6.180000    2.060000   15.480000    ( 0.0000,  0.0000,  0.0000)
  45 Mo     4.120000    4.120000   15.480000    ( 0.0000,  0.0000,  0.0000)
  46 Mo     6.180000    6.180000   17.540000    ( 0.0000,  0.0000,  0.0000)
  47 C      6.180000    6.180000   15.480000    ( 0.0000,  0.0000,  0.0000)
  48 Ag     1.991786    1.991786   19.340000    ( 0.0000,  0.0000,  0.0000)
  49 Ag     1.991786    4.391786   19.340000    ( 0.0000,  0.0000,  0.0000)
  50 Ag     4.391786    1.991786   19.340000    ( 0.0000,  0.0000,  0.0000)
  51 Ag     4.391786    4.391786   19.340000    ( 0.0000,  0.0000,  0.0000)
  52 H      3.191786    3.191786   20.840000    ( 0.0000,  0.0000,  0.0000)

Unit cell:
           periodic     x           y           z      points  spacing
  1. axis:    yes    7.467048    0.000000    0.000000    36     0.2074
  2. axis:    yes    0.000000    7.467048    0.000000    36     0.2074
  3. axis:    yes    0.000000    0.000000   25.540000   128     0.1995

  Lengths:   7.467048   7.467048  25.540000
  Angles:   90.000000  90.000000  90.000000

Effective grid spacing dv^(1/3) = 0.2048

     iter     time        total  log10-change:
                         energy   eigst   dens
iter:   1 02:50:28 -1060.960382        c
iter:   2 02:51:47 -5642.031073        c -0.91
iter:   3 02:53:04  -488.758399        c -0.38
iter:   4 02:54:21  -465.176701        c -1.36
iter:   5 02:55:38  -503.117337        c -1.24
iter:   6 02:56:59  -437.049376        c -1.36
iter:   7 02:58:16  -418.329687        c -1.52
iter:   8 02:59:33  -402.547687        c -1.59
iter:   9 03:00:55  -394.437067        c -1.57
iter:  10 03:02:15  -404.928470        c -1.59
iter:  11 03:03:35  -419.470397        c -1.59
iter:  12 03:04:52  -385.549015        c -1.61
iter:  13 03:06:10  -395.200160        c -1.83
iter:  14 03:07:27  -386.468305        c -1.74
iter:  15 03:08:46  -384.028162        c -1.80
iter:  16 03:10:06  -408.916893        c -1.92
iter:  17 03:11:23  -399.509862        c -1.66
iter:  18 03:12:45  -386.571388        c -1.72
iter:  19 03:14:03  -384.156554        c -1.88
iter:  20 03:15:22  -384.725340        c -1.98
iter:  21 03:16:39  -389.223349        c -2.00
iter:  22 03:17:57  -387.654261        c -1.91
iter:  23 03:19:15  -391.851984        c -1.95
iter:  24 03:20:32  -383.559047        c -1.86
iter:  25 03:21:49  -383.084164        c -2.24
iter:  26 03:23:07  -391.034455        c -2.17
iter:  27 03:24:27  -381.666114        c -1.78
iter:  28 03:25:44  -382.047009        c -2.61
iter:  29 03:27:02  -382.017347        c -2.35
iter:  30 03:28:20  -381.651749        c -2.41
iter:  31 03:29:37  -381.860023        c -2.60
iter:  32 03:30:57  -381.496895        c -2.58
iter:  33 03:32:17  -381.636991        c -2.93
iter:  34 03:33:38  -381.451991        c -2.66
iter:  35 03:34:56  -381.447814        c -3.06
iter:  36 03:36:14  -381.438917        c -3.14
iter:  37 03:37:32  -381.421297        c -3.21
iter:  38 03:38:52  -381.429141        c -3.14
iter:  39 03:40:09  -381.594225        c -3.08
iter:  40 03:41:29  -381.419463        c -2.76
iter:  41 03:42:46  -381.418568        c -3.34
iter:  42 03:44:04  -381.416922c       c -3.40
iter:  43 03:45:25  -381.418233c       c -3.39
iter:  44 03:46:44  -381.414045c       c -3.37
iter:  45 03:48:04  -381.634796        c -3.46
iter:  46 03:49:25  -381.415646        c -2.62
iter:  47 03:50:46  -381.417190        c -3.55
iter:  48 03:52:03  -381.420216c       c -3.59
iter:  49 03:53:29  -381.416954c       c -3.86
iter:  50 03:54:51  -381.416175c       c -3.89
iter:  51 03:56:08  -381.422304c       c -3.72
iter:  52 03:57:26  -381.416440c       c -3.93
iter:  53 03:58:47  -381.417594c       c -3.91
iter:  54 04:00:12  -381.418250c       c -4.18c

Converged after 54 iterations.

Dipole moment: (-7.937202, -7.937202, 0.360345) |e|*Ang

Energy contributions relative to reference atoms: (reference = -2948925.423740)

Kinetic:       +123.535290
Potential:      -96.348965
External:        +0.000000
XC:            -404.681681
Entropy (-ST):   -3.770830
Local:           -2.037479
SIC:             +0.000000
--------------------------
Free energy:   -383.303665
Extrapolated:  -381.418250

Showing only first 2 kpts
 Kpt  Band  Eigenvalues  Occupancy
  0   384      1.08845    1.31636
  0   385      1.09436    1.28952
  0   386      1.11269    1.20347
  0   387      1.12917    1.12335

  1   384      1.08908    1.31349
  1   385      1.09241    1.29843
  1   386      1.11238    1.20500
  1   387      1.12222    1.15738


Fermi level: 1.15396

No gap
No difference between direct/indirect transitions
Timing:                              incl.     excl.
-----------------------------------------------------------
Basic WFS set positions:             0.001     0.001   0.0% |
Basis functions set positions:       0.193     0.193   0.0% |
LCAO WFS Initialize:                 0.420     0.096   0.0% |
 Hamiltonian:                        0.324     0.000   0.0% |
  Atomic:                            0.167     0.002   0.0% |
   XC Correction:                    0.165     0.165   0.0% |
  Calculate atomic Hamiltonians:     0.028     0.028   0.0% |
  Communicate:                       0.000     0.000   0.0% |
  Hartree integrate/restrict:        0.006     0.006   0.0% |
  Initialize Hamiltonian:            0.001     0.001   0.0% |
  Poisson:                           0.076     0.005   0.0% |
   Communicate from 1D:              0.007     0.007   0.0% |
   Communicate from 2D:              0.006     0.006   0.0% |
   Communicate to 1D:                0.011     0.011   0.0% |
   Communicate to 2D:                0.011     0.011   0.0% |
   FFT 1D:                           0.007     0.007   0.0% |
   FFT 2D:                           0.028     0.028   0.0% |
  XC 3D grid:                        0.045     0.045   0.0% |
  vbar:                              0.001     0.001   0.0% |
P tci:                               4.301     4.301   0.1% |
SCF-cycle:                        4204.989     0.147   0.0% |
 Density:                         3093.587     0.001   0.0% |
  Atomic density matrices:           0.854     0.854   0.0% |
  Mix:                               5.973     5.973   0.1% |
  Multipole moments:                 0.016     0.016   0.0% |
  Normalize:                         0.006     0.006   0.0% |
  Pseudo density:                 3086.736     0.202   0.0% |
   Calculate density matrix:         7.798     7.798   0.2% |
   Construct density:             3078.536  3078.536  73.0% |----------------------------|
   Symmetrize density:               0.201     0.201   0.0% |
 Hamiltonian:                       18.174     0.002   0.0% |
  Atomic:                            8.925     0.099   0.0% |
   XC Correction:                    8.826     8.826   0.2% |
  Calculate atomic Hamiltonians:     1.470     1.470   0.0% |
  Communicate:                       0.000     0.000   0.0% |
  Hartree integrate/restrict:        0.327     0.327   0.0% |
  Poisson:                           4.071     0.298   0.0% |
   Communicate from 1D:              0.421     0.421   0.0% |
   Communicate from 2D:              0.315     0.315   0.0% |
   Communicate to 1D:                0.533     0.533   0.0% |
   Communicate to 2D:                0.550     0.550   0.0% |
   FFT 1D:                           0.402     0.402   0.0% |
   FFT 2D:                           1.553     1.553   0.0% |
  XC 3D grid:                        2.999     2.999   0.1% |
  vbar:                              0.379     0.379   0.0% |
 LCAO eigensolver:                1093.081     1.399   0.0% |
  Calculate projections:            35.479    35.479   0.8% |
  DenseAtomicCorrection:           145.831   145.831   3.5% ||
  Distribute overlap matrix:         3.017     3.017   0.1% |
  Orbital Layouts:                 211.056   211.056   5.0% |-|
  Potential matrix:                639.515   639.515  15.2% |-----|
  Sum over cells:                   56.785    56.785   1.3% ||
ST tci:                              2.125     2.125   0.1% |
Set symmetry:                        0.000     0.000   0.0% |
TCI: Evaluate splines:               0.683     0.683   0.0% |
mktci:                               0.029     0.029   0.0% |
Other:                               4.003     4.003   0.1% |
-----------------------------------------------------------
Total:                                      4216.744 100.0%

Memory usage: 4.49 GiB
Date: Mon Feb 23 04:00:12 2026
