
  ___ ___ ___ _ _ _  
 |   |   |_  | | | | 
 | | | | | . | | | | 
 |__ |  _|___|_____|  25.7.0
 |___|_|             

User:   ubuntu@third-test
Date:   Thu Feb 12 16:35:46 2026
Arch:   x86_64
Pid:    1539777
CWD:    /mnt/vdd1/work/cemea/fairchem/src/fairchem/applications/ocx/mo_h_adsorption_workflow
Python: 3.10.16
gpaw:   /home/ubuntu/.pyenv/versions/cemea-env/lib/python3.10/site-packages/gpaw
_gpaw:  /home/ubuntu/.pyenv/versions/cemea-env/lib/python3.10/site-packages/
        _gpaw.cpython-310-x86_64-linux-gnu.so
ase:    /home/ubuntu/.pyenv/versions/cemea-env/lib/python3.10/site-packages/ase (version 3.27.0)
numpy:  /home/ubuntu/.pyenv/versions/cemea-env/lib/python3.10/site-packages/numpy (version 2.2.6)
scipy:  /home/ubuntu/.pyenv/versions/cemea-env/lib/python3.10/site-packages/scipy (version 1.15.3)
libxc:  2.x.y
units:  Angstrom and eV
cores: 1
OpenMP: False
OMP_NUM_THREADS: 1

Input parameters:
  basis: dzp
  convergence: {density: 0.0001,
                eigenstates: 1e-05,
                energy: 1e-05}
  kpts: [4 4 1]
  mode: lcao

System changes: positions, numbers, cell, pbc, initial_charges, initial_magmoms 

Initialize ...

species:
  Mo:
    name: Molybdenum
    id: ac24daaf086600a00ce6d19a74574df1
    Z: 42.0
    valence: 14
    core: 28
    charge: 0.0
    file: /home/ubuntu/.pyenv/versions/cemea-env/lib/python3.10/site-packages/gpaw_data/setups/Mo.LDA.gz
    compensation charges: {type: gauss,
                           rc: 0.38,
                           lmax: 2}
    cutoffs: {filter: 2.16,
              core: 1.42}
    projectors:
      #              energy  rcut
      - 4s(2.00)   -64.384   1.238
      - 5s(1.00)    -4.319   1.238
      - 4p(6.00)   -38.595   1.296
      - 5p(0.00)    -1.161   1.296
      - 4d(5.00)    -3.933   1.296
      -  d          23.278   1.296
  
    # LCAO basis set for Mo:
    #   Name: dzp
    #   File: /home/ubuntu/.pyenv/versions/cemea-env/lib/python3.10/site-packages/gpaw_data/setups/Mo.dzp.basis.gz
    #   Number of radial functions: 11
    #   Number of spherical harmonics: 29
    #     l=0, rc=3.5469 Bohr: 4s-sz confined orbital
    #     l=0, rc=10.0469 Bohr: 5s-sz confined orbital
    #     l=1, rc=4.0781 Bohr: 4p-sz confined orbital
    #     l=1, rc=14.0938 Bohr: 5p-sz confined orbital
    #     l=2, rc=7.2031 Bohr: 4d-sz confined orbital
    #     l=0, rc=2.1250 Bohr: 4s-dz split-valence wave
    #     l=0, rc=6.1250 Bohr: 5s-dz split-valence wave
    #     l=1, rc=2.5469 Bohr: 4p-dz split-valence wave
    #     l=1, rc=8.7656 Bohr: 5p-dz split-valence wave
    #     l=2, rc=4.2344 Bohr: 4d-dz split-valence wave
    #     l=1, rc=10.0469 Bohr: p-type Gaussian polarization
    #   Number of RI-basis functions 0

  S:
    name: Sulfur
    id: a5eb49d7597a2879c13719b04c71318f
    Z: 16.0
    valence: 6
    core: 10
    charge: 0.0
    file: /home/ubuntu/.pyenv/versions/cemea-env/lib/python3.10/site-packages/gpaw_data/setups/S.LDA.gz
    compensation charges: {type: gauss,
                           rc: 0.24,
                           lmax: 2}
    cutoffs: {filter: 1.77,
              core: 1.66}
    projectors:
      #              energy  rcut
      - 3s(2.00)   -17.278   0.974
      - 3p(4.00)    -7.106   0.979
      -  s           9.933   0.974
      -  p          20.105   0.979
      -  d           0.000   0.900
  
    # LCAO basis set for S:
    #   Name: dzp
    #   File: /home/ubuntu/.pyenv/versions/cemea-env/lib/python3.10/site-packages/gpaw_data/setups/S.dzp.basis.gz
    #   Number of radial functions: 5
    #   Number of spherical harmonics: 13
    #     l=0, rc=5.5156 Bohr: 3s-sz confined orbital
    #     l=1, rc=6.9375 Bohr: 3p-sz confined orbital
    #     l=0, rc=3.0469 Bohr: 3s-dz split-valence wave
    #     l=1, rc=3.9375 Bohr: 3p-dz split-valence wave
    #     l=2, rc=6.9375 Bohr: d-type Gaussian polarization
    #   Number of RI-basis functions 0

Reference energy: -1470007.958056  # eV

Spin-paired calculation

Convergence criteria:
 Maximum [total energy] change in last 3 cyles: 1e-05 eV / valence electron
 Maximum integral of absolute [dens]ity change: 0.0001 electrons / valence electron
 Maximum integral of absolute [eigenst]ate change: 1e-05 eV^2 / valence electron
 Maximum number of scf [iter]ations: 333
 (Square brackets indicate name in SCF output, whereas a 'c' in
 the SCF output indicates the quantity has converged.)

Symmetries present (total): 1

  ( 1  0  0)
  ( 0  1  0)
  ( 0  0  1)

16 k-points: 4 x 4 x 1 Monkhorst-Pack grid
8 k-points in the irreducible part of the Brillouin zone
       k-points in crystal coordinates                weights
   0:     0.12500000   -0.37500000    0.00000000          2/16
   1:     0.12500000   -0.12500000    0.00000000          2/16
   2:     0.12500000    0.12500000    0.00000000          2/16
   3:     0.12500000    0.37500000    0.00000000          2/16
   4:     0.37500000   -0.37500000    0.00000000          2/16
   5:     0.37500000   -0.12500000    0.00000000          2/16
   6:     0.37500000    0.12500000    0.00000000          2/16
   7:     0.37500000    0.37500000    0.00000000          2/16

Wave functions: LCAO
  Diagonalizer: Serial LAPACK
  Atomic Correction: dense with blas
  Data-type: complex
 

Occupation numbers: Fermi-Dirac:
  width: 0.1000  # eV
 

Eigensolver
   LCAO using direct dense diagonalizer 

Densities:
  Coarse grid: 156*28*96 grid
  Fine grid: 312*56*192 grid
  Total Charge: 0.000000 

Density mixing:
  Method: separate
  Backend: pulay
  Linear mixing parameter: 0.05
  old densities: 5
  Damping of long wavelength oscillations: 50 

Hamiltonian:
  XC and Coulomb potentials evaluated on a 312*56*192 grid
  Using the LDA Exchange-Correlation functional
  Interpolation: tri-quintic (5. degree polynomial)
  Poisson solver: FastPoissonSolver using
    Stencil: 8*3+1=25 point O(h^6) finite-difference Laplacian
    FFT axes: [np.int64(0), np.int64(1), np.int64(2)]
    FST axes: []
 

Memory estimate:
  Process memory now: 1538.59 MiB
  Calculator: 524.29 MiB
    Density: 210.77 MiB
      Arrays: 83.18 MiB
      Localized functions: 95.59 MiB
      Mixer: 31.99 MiB
    Hamiltonian: 61.32 MiB
      Arrays: 54.39 MiB
      XC: 0.00 MiB
      Poisson: 0.00 MiB
      vbar: 6.94 MiB
    Wavefunctions: 252.20 MiB
      C [qnM]: 14.10 MiB
      S, T [2 x qmm]: 97.21 MiB
      P [aqMi]: 2.46 MiB
      BasisFunctions: 138.44 MiB
      Eigensolver: 0.00 MiB

Total number of cores used: 1

Number of atoms: 35
Number of atomic orbitals: 631
Number of bands in calculation: 183
Number of valence electrons: 298
Bands to converge: occupied

... initialized

Initializing position-dependent things.

Density initialized from atomic densities
                                                                 
                                                                 
                                                                 
                                                                 
          S      S       S       S       S      S                
            S       S      S       S       S       S             
                                                                 
                Mo      Mo      Mo     Mo      Mo                
           MoS     MoS    MoS     MoS     MoS    Mo S            
                                                                 
               S       S       S      S       S       S          
                                                                 
                                                                 
                                                                 
                                                                 

Atomic positions and initial magnetic moments

Positions:
   0 Mo     9.237604    0.000000    9.475400    ( 0.0000,  0.0000,  0.0000)
   1 S      9.237604    1.824427   10.950800    ( 0.0000,  0.0000,  0.0000)
   2 S     10.817604    0.912213    8.000000    ( 0.0000,  0.0000,  0.0000)
   3 S      7.657604    4.561067   10.950800    ( 0.0000,  0.0000,  0.0000)
   4 S      9.237604    3.648854    8.000000    ( 0.0000,  0.0000,  0.0000)
   5 Mo    12.397604    0.000000    9.475400    ( 0.0000,  0.0000,  0.0000)
   6 S     12.397604    1.824427   10.950800    ( 0.0000,  0.0000,  0.0000)
   7 S     13.977604    0.912213    8.000000    ( 0.0000,  0.0000,  0.0000)
   8 Mo    10.817604    2.736640    9.475400    ( 0.0000,  0.0000,  0.0000)
   9 S     10.817604    4.561067   10.950800    ( 0.0000,  0.0000,  0.0000)
  10 S     12.397604    3.648854    8.000000    ( 0.0000,  0.0000,  0.0000)
  11 Mo    15.557604    0.000000    9.475400    ( 0.0000,  0.0000,  0.0000)
  12 S     15.557604    1.824427   10.950800    ( 0.0000,  0.0000,  0.0000)
  13 S     17.137604    0.912213    8.000000    ( 0.0000,  0.0000,  0.0000)
  14 Mo    13.977604    2.736640    9.475400    ( 0.0000,  0.0000,  0.0000)
  15 S     13.977604    4.561067   10.950800    ( 0.0000,  0.0000,  0.0000)
  16 S     15.557604    3.648854    8.000000    ( 0.0000,  0.0000,  0.0000)
  17 Mo    18.717604    0.000000    9.475400    ( 0.0000,  0.0000,  0.0000)
  18 S     18.717604    1.824427   10.950800    ( 0.0000,  0.0000,  0.0000)
  19 S     20.297604    0.912213    8.000000    ( 0.0000,  0.0000,  0.0000)
  20 Mo    17.137604    2.736640    9.475400    ( 0.0000,  0.0000,  0.0000)
  21 S     17.137604    4.561067   10.950800    ( 0.0000,  0.0000,  0.0000)
  22 S     18.717604    3.648854    8.000000    ( 0.0000,  0.0000,  0.0000)
  23 Mo    21.877604    0.000000    9.475400    ( 0.0000,  0.0000,  0.0000)
  24 S     21.877604    1.824427   10.950800    ( 0.0000,  0.0000,  0.0000)
  25 S     23.457604    0.912213    8.000000    ( 0.0000,  0.0000,  0.0000)
  26 Mo    20.297604    2.736640    9.475400    ( 0.0000,  0.0000,  0.0000)
  27 S     20.297604    4.561067   10.950800    ( 0.0000,  0.0000,  0.0000)
  28 S     21.877604    3.648854    8.000000    ( 0.0000,  0.0000,  0.0000)
  29 Mo    25.037604    0.000000    9.475400    ( 0.0000,  0.0000,  0.0000)
  30 S     25.037604    1.824427   10.950800    ( 0.0000,  0.0000,  0.0000)
  31 S     26.617604    0.912213    8.000000    ( 0.0000,  0.0000,  0.0000)
  32 Mo    23.457604    2.736640    9.475400    ( 0.0000,  0.0000,  0.0000)
  33 S     23.457604    4.561067   10.950800    ( 0.0000,  0.0000,  0.0000)
  34 S     25.037604    3.648854    8.000000    ( 0.0000,  0.0000,  0.0000)

Unit cell:
           periodic     x           y           z      points  spacing
  1. axis:    yes   36.381875    0.000000    0.000000   156     0.2020
  2. axis:    yes   -3.160000    5.473281    0.000000    28     0.1955
  3. axis:    yes    0.000000    0.000000   18.950800    96     0.1974

  Lengths:  36.381875   6.320000  18.950800
  Angles:   90.000000  90.000000 120.000000

Effective grid spacing dv^(1/3) = 0.2080

     iter     time        total  log10-change:
                         energy   eigst   dens
iter:   1 16:36:03  -260.973189        c
iter:   2 16:36:39  -255.229564        c -1.17
iter:   3 16:37:14  -251.711202        c -1.25
iter:   4 16:37:49  -250.025426        c -1.30
iter:   5 16:38:25  -249.715239        c -1.32
iter:   6 16:39:02  -248.170448        c -1.37
iter:   7 16:39:37  -247.263956        c -1.47
iter:   8 16:40:11  -246.627125        c -1.61
iter:   9 16:40:47  -246.571146        c -1.92
iter:  10 16:41:21  -246.540706        c -2.01
iter:  11 16:41:56  -246.440210        c -2.05
iter:  12 16:42:30  -246.420949        c -2.32
iter:  13 16:43:05  -246.406864        c -2.49
iter:  14 16:43:40  -246.407270        c -2.57
iter:  15 16:44:14  -246.402899        c -2.74
iter:  16 16:44:49  -246.400392        c -2.82
iter:  17 16:45:24  -246.397698        c -2.90
iter:  18 16:46:00  -246.397005        c -2.99
iter:  19 16:46:36  -246.398667c       c -3.30
iter:  20 16:47:10  -246.397037c       c -3.49
iter:  21 16:47:45  -246.397687c       c -3.62
iter:  22 16:48:20  -246.397576c       c -3.74
iter:  23 16:48:54  -246.397620c       c -3.89
iter:  24 16:49:29  -246.397554c       c -4.03c

Converged after 24 iterations.

Dipole moment: (1.728637, -6.551657, -0.012749) |e|*Ang

Energy contributions relative to reference atoms: (reference = -1470007.958056)

Kinetic:       +240.841657
Potential:     -268.718913
External:        +0.000000
XC:            -219.066555
Entropy (-ST):   -0.600570
Local:           +0.846542
SIC:             +0.000000
--------------------------
Free energy:   -246.697839
Extrapolated:  -246.397554

Showing only first 2 kpts
 Kpt  Band  Eigenvalues  Occupancy
  0   147     -3.25669    1.61962
  0   148     -3.06676    0.77845
  0   149     -2.95841    0.35480
  0   150     -2.83697    0.12035

  1   147     -3.44618    1.93179
  1   148     -3.19276    1.38397
  1   149     -3.14809    1.17939
  1   150     -2.98751    0.44782


Fermi level: -3.11182

No gap
No difference between direct/indirect transitions
Timing:                              incl.     excl.
-----------------------------------------------------------
Basic WFS set positions:             0.001     0.001   0.0% |
Basis functions set positions:       0.199     0.199   0.0% |
LCAO WFS Initialize:                 1.320     0.298   0.0% |
 Hamiltonian:                        1.021     0.000   0.0% |
  Atomic:                            0.205     0.002   0.0% |
   XC Correction:                    0.203     0.203   0.0% |
  Calculate atomic Hamiltonians:     0.022     0.022   0.0% |
  Communicate:                       0.000     0.000   0.0% |
  Hartree integrate/restrict:        0.052     0.052   0.0% |
  Initialize Hamiltonian:            0.000     0.000   0.0% |
  Poisson:                           0.540     0.024   0.0% |
   Communicate from 1D:              0.077     0.077   0.0% |
   Communicate from 2D:              0.079     0.079   0.0% |
   Communicate to 1D:                0.090     0.090   0.0% |
   Communicate to 2D:                0.076     0.076   0.0% |
   FFT 1D:                           0.051     0.051   0.0% |
   FFT 2D:                           0.144     0.144   0.0% |
  XC 3D grid:                        0.176     0.176   0.0% |
  vbar:                              0.026     0.026   0.0% |
P tci:                               2.665     2.665   0.3% |
SCF-cycle:                         814.226     0.035   0.0% |
 Density:                          576.579     0.001   0.0% |
  Atomic density matrices:           0.292     0.292   0.0% |
  Mix:                               6.053     6.053   0.7% |
  Multipole moments:                 0.012     0.012   0.0% |
  Normalize:                         0.011     0.011   0.0% |
  Pseudo density:                  570.211     0.035   0.0% |
   Calculate density matrix:         3.513     3.513   0.4% |
   Construct density:              566.662   566.662  68.8% |---------------------------|
   Symmetrize density:               0.001     0.001   0.0% |
 Hamiltonian:                       21.073     0.002   0.0% |
  Atomic:                            4.684     0.051   0.0% |
   XC Correction:                    4.633     4.633   0.6% |
  Calculate atomic Hamiltonians:     0.439     0.439   0.1% |
  Communicate:                       0.000     0.000   0.0% |
  Hartree integrate/restrict:        1.044     1.044   0.1% |
  Poisson:                          10.551     0.341   0.0% |
   Communicate from 1D:              1.541     1.541   0.2% |
   Communicate from 2D:              1.581     1.581   0.2% |
   Communicate to 1D:                1.518     1.518   0.2% |
   Communicate to 2D:                1.562     1.562   0.2% |
   FFT 1D:                           1.037     1.037   0.1% |
   FFT 2D:                           2.972     2.972   0.4% |
  XC 3D grid:                        3.894     3.894   0.5% |
  vbar:                              0.458     0.458   0.1% |
 LCAO eigensolver:                 216.539     0.102   0.0% |
  Calculate projections:             6.107     6.107   0.7% |
  DenseAtomicCorrection:            40.996    40.996   5.0% |-|
  Distribute overlap matrix:         0.141     0.141   0.0% |
  Orbital Layouts:                  56.970    56.970   6.9% |--|
  Potential matrix:                109.013   109.013  13.2% |----|
  Sum over cells:                    3.210     3.210   0.4% |
ST tci:                              0.595     0.595   0.1% |
Set symmetry:                        0.001     0.001   0.0% |
TCI: Evaluate splines:               0.264     0.264   0.0% |
mktci:                               0.014     0.014   0.0% |
Other:                               3.799     3.799   0.5% |
-----------------------------------------------------------
Total:                                       823.083 100.0%

Memory usage: 1.50 GiB
Date: Thu Feb 12 16:49:29 2026
