
  ___ ___ ___ _ _ _  
 |   |   |_  | | | | 
 | | | | | . | | | | 
 |__ |  _|___|_____|  25.7.0
 |___|_|             

User:   ubuntu@third-test
Date:   Thu Feb 12 16:49:29 2026
Arch:   x86_64
Pid:    1539777
CWD:    /mnt/vdd1/work/cemea/fairchem/src/fairchem/applications/ocx/mo_h_adsorption_workflow
Python: 3.10.16
gpaw:   /home/ubuntu/.pyenv/versions/cemea-env/lib/python3.10/site-packages/gpaw
_gpaw:  /home/ubuntu/.pyenv/versions/cemea-env/lib/python3.10/site-packages/
        _gpaw.cpython-310-x86_64-linux-gnu.so
ase:    /home/ubuntu/.pyenv/versions/cemea-env/lib/python3.10/site-packages/ase (version 3.27.0)
numpy:  /home/ubuntu/.pyenv/versions/cemea-env/lib/python3.10/site-packages/numpy (version 2.2.6)
scipy:  /home/ubuntu/.pyenv/versions/cemea-env/lib/python3.10/site-packages/scipy (version 1.15.3)
libxc:  2.x.y
units:  Angstrom and eV
cores: 1
OpenMP: False
OMP_NUM_THREADS: 1

Input parameters:
  basis: dzp
  convergence: {density: 0.0001,
                eigenstates: 1e-05,
                energy: 1e-05}
  kpts: [4 4 1]
  mode: lcao

System changes: positions, numbers, cell, pbc, initial_charges, initial_magmoms 

Initialize ...

species:
  Mo:
    name: Molybdenum
    id: ac24daaf086600a00ce6d19a74574df1
    Z: 42.0
    valence: 14
    core: 28
    charge: 0.0
    file: /home/ubuntu/.pyenv/versions/cemea-env/lib/python3.10/site-packages/gpaw_data/setups/Mo.LDA.gz
    compensation charges: {type: gauss,
                           rc: 0.38,
                           lmax: 2}
    cutoffs: {filter: 2.16,
              core: 1.42}
    projectors:
      #              energy  rcut
      - 4s(2.00)   -64.384   1.238
      - 5s(1.00)    -4.319   1.238
      - 4p(6.00)   -38.595   1.296
      - 5p(0.00)    -1.161   1.296
      - 4d(5.00)    -3.933   1.296
      -  d          23.278   1.296
  
    # LCAO basis set for Mo:
    #   Name: dzp
    #   File: /home/ubuntu/.pyenv/versions/cemea-env/lib/python3.10/site-packages/gpaw_data/setups/Mo.dzp.basis.gz
    #   Number of radial functions: 11
    #   Number of spherical harmonics: 29
    #     l=0, rc=3.5469 Bohr: 4s-sz confined orbital
    #     l=0, rc=10.0469 Bohr: 5s-sz confined orbital
    #     l=1, rc=4.0781 Bohr: 4p-sz confined orbital
    #     l=1, rc=14.0938 Bohr: 5p-sz confined orbital
    #     l=2, rc=7.2031 Bohr: 4d-sz confined orbital
    #     l=0, rc=2.1250 Bohr: 4s-dz split-valence wave
    #     l=0, rc=6.1250 Bohr: 5s-dz split-valence wave
    #     l=1, rc=2.5469 Bohr: 4p-dz split-valence wave
    #     l=1, rc=8.7656 Bohr: 5p-dz split-valence wave
    #     l=2, rc=4.2344 Bohr: 4d-dz split-valence wave
    #     l=1, rc=10.0469 Bohr: p-type Gaussian polarization
    #   Number of RI-basis functions 0

  S:
    name: Sulfur
    id: a5eb49d7597a2879c13719b04c71318f
    Z: 16.0
    valence: 6
    core: 10
    charge: 0.0
    file: /home/ubuntu/.pyenv/versions/cemea-env/lib/python3.10/site-packages/gpaw_data/setups/S.LDA.gz
    compensation charges: {type: gauss,
                           rc: 0.24,
                           lmax: 2}
    cutoffs: {filter: 1.77,
              core: 1.66}
    projectors:
      #              energy  rcut
      - 3s(2.00)   -17.278   0.974
      - 3p(4.00)    -7.106   0.979
      -  s           9.933   0.974
      -  p          20.105   0.979
      -  d           0.000   0.900
  
    # LCAO basis set for S:
    #   Name: dzp
    #   File: /home/ubuntu/.pyenv/versions/cemea-env/lib/python3.10/site-packages/gpaw_data/setups/S.dzp.basis.gz
    #   Number of radial functions: 5
    #   Number of spherical harmonics: 13
    #     l=0, rc=5.5156 Bohr: 3s-sz confined orbital
    #     l=1, rc=6.9375 Bohr: 3p-sz confined orbital
    #     l=0, rc=3.0469 Bohr: 3s-dz split-valence wave
    #     l=1, rc=3.9375 Bohr: 3p-dz split-valence wave
    #     l=2, rc=6.9375 Bohr: d-type Gaussian polarization
    #   Number of RI-basis functions 0

  H:
    name: Hydrogen
    id: 4766778ce56282eaa64abeb28b7c1de3
    Z: 1.0
    valence: 1
    core: 0
    charge: 0.0
    file: /home/ubuntu/.pyenv/versions/cemea-env/lib/python3.10/site-packages/gpaw_data/setups/H.LDA.gz
    compensation charges: {type: gauss,
                           rc: 0.15,
                           lmax: 2}
    cutoffs: {filter: 0.85,
              core: 0.53}
    projectors:
      #              energy  rcut
      - 1s(1.00)    -6.353   0.476
      -  s          20.858   0.476
      -  p           0.000   0.476
  
    # LCAO basis set for H:
    #   Name: dzp
    #   File: /home/ubuntu/.pyenv/versions/cemea-env/lib/python3.10/site-packages/gpaw_data/setups/H.dzp.basis.gz
    #   Number of radial functions: 3
    #   Number of spherical harmonics: 5
    #     l=0, rc=6.4219 Bohr: 1s-sz confined orbital
    #     l=0, rc=3.6094 Bohr: 1s-dz split-valence wave
    #     l=1, rc=6.4219 Bohr: p-type Gaussian polarization
    #   Number of RI-basis functions 0

Reference energy: -1470020.087014  # eV

Spin-paired calculation

Convergence criteria:
 Maximum [total energy] change in last 3 cyles: 1e-05 eV / valence electron
 Maximum integral of absolute [dens]ity change: 0.0001 electrons / valence electron
 Maximum integral of absolute [eigenst]ate change: 1e-05 eV^2 / valence electron
 Maximum number of scf [iter]ations: 333
 (Square brackets indicate name in SCF output, whereas a 'c' in
 the SCF output indicates the quantity has converged.)

Symmetries present (total): 1

  ( 1  0  0)
  ( 0  1  0)
  ( 0  0  1)

16 k-points: 4 x 4 x 1 Monkhorst-Pack grid
8 k-points in the irreducible part of the Brillouin zone
       k-points in crystal coordinates                weights
   0:     0.12500000   -0.37500000    0.00000000          2/16
   1:     0.12500000   -0.12500000    0.00000000          2/16
   2:     0.12500000    0.12500000    0.00000000          2/16
   3:     0.12500000    0.37500000    0.00000000          2/16
   4:     0.37500000   -0.37500000    0.00000000          2/16
   5:     0.37500000   -0.12500000    0.00000000          2/16
   6:     0.37500000    0.12500000    0.00000000          2/16
   7:     0.37500000    0.37500000    0.00000000          2/16

Wave functions: LCAO
  Diagonalizer: Serial LAPACK
  Atomic Correction: dense with blas
  Data-type: complex
 

Occupation numbers: Fermi-Dirac:
  width: 0.1000  # eV
 

Eigensolver
   LCAO using direct dense diagonalizer 

Densities:
  Coarse grid: 156*28*96 grid
  Fine grid: 312*56*192 grid
  Total Charge: 0.000000 

Density mixing:
  Method: separate
  Backend: pulay
  Linear mixing parameter: 0.05
  old densities: 5
  Damping of long wavelength oscillations: 50 

Hamiltonian:
  XC and Coulomb potentials evaluated on a 312*56*192 grid
  Using the LDA Exchange-Correlation functional
  Interpolation: tri-quintic (5. degree polynomial)
  Poisson solver: FastPoissonSolver using
    Stencil: 8*3+1=25 point O(h^6) finite-difference Laplacian
    FFT axes: [np.int64(0), np.int64(1), np.int64(2)]
    FST axes: []
 

Memory estimate:
  Process memory now: 1538.59 MiB
  Calculator: 526.89 MiB
    Density: 210.99 MiB
      Arrays: 83.18 MiB
      Localized functions: 95.81 MiB
      Mixer: 31.99 MiB
    Hamiltonian: 61.34 MiB
      Arrays: 54.39 MiB
      XC: 0.00 MiB
      Poisson: 0.00 MiB
      vbar: 6.96 MiB
    Wavefunctions: 254.56 MiB
      C [qnM]: 14.29 MiB
      S, T [2 x qmm]: 98.75 MiB
      P [aqMi]: 2.50 MiB
      BasisFunctions: 139.02 MiB
      Eigensolver: 0.00 MiB

Total number of cores used: 1

Number of atoms: 36
Number of atomic orbitals: 636
Number of bands in calculation: 184
Number of valence electrons: 299
Bands to converge: occupied

... initialized

Initializing position-dependent things.

Density initialized from atomic densities
                                                                 
                                                                 
                                                                 
                                                                 
                                                                 
          S      S       S     H S       S      S                
                                                                 
            S       S      S       S       S       S             
                Mo      Mo      Mo     Mo      Mo                
             S       S      S       S       S       S            
           Mo      Mo     Mo      Mo      Mo     Mo              
               S       S       S      S       S       S          
                                                                 
                                                                 
                                                                 
                                                                 

Atomic positions and initial magnetic moments

Positions:
   0 Mo     9.237604    0.000000    9.475400    ( 0.0000,  0.0000,  0.0000)
   1 S      9.237604    1.824427   10.950800    ( 0.0000,  0.0000,  0.0000)
   2 S     10.817604    0.912213    8.000000    ( 0.0000,  0.0000,  0.0000)
   3 S      7.657604    4.561067   10.950800    ( 0.0000,  0.0000,  0.0000)
   4 S      9.237604    3.648854    8.000000    ( 0.0000,  0.0000,  0.0000)
   5 Mo    12.397604    0.000000    9.475400    ( 0.0000,  0.0000,  0.0000)
   6 S     12.397604    1.824427   10.950800    ( 0.0000,  0.0000,  0.0000)
   7 S     13.977604    0.912213    8.000000    ( 0.0000,  0.0000,  0.0000)
   8 Mo    10.817604    2.736640    9.475400    ( 0.0000,  0.0000,  0.0000)
   9 S     10.817604    4.561067   10.950800    ( 0.0000,  0.0000,  0.0000)
  10 S     12.397604    3.648854    8.000000    ( 0.0000,  0.0000,  0.0000)
  11 Mo    15.557604    0.000000    9.475400    ( 0.0000,  0.0000,  0.0000)
  12 S     15.557604    1.824427   10.950800    ( 0.0000,  0.0000,  0.0000)
  13 S     17.137604    0.912213    8.000000    ( 0.0000,  0.0000,  0.0000)
  14 Mo    13.977604    2.736640    9.475400    ( 0.0000,  0.0000,  0.0000)
  15 S     13.977604    4.561067   10.950800    ( 0.0000,  0.0000,  0.0000)
  16 S     15.557604    3.648854    8.000000    ( 0.0000,  0.0000,  0.0000)
  17 Mo    18.717604    0.000000    9.475400    ( 0.0000,  0.0000,  0.0000)
  18 S     18.717604    1.824427   10.950800    ( 0.0000,  0.0000,  0.0000)
  19 S     20.297604    0.912213    8.000000    ( 0.0000,  0.0000,  0.0000)
  20 Mo    17.137604    2.736640    9.475400    ( 0.0000,  0.0000,  0.0000)
  21 S     17.137604    4.561067   10.950800    ( 0.0000,  0.0000,  0.0000)
  22 S     18.717604    3.648854    8.000000    ( 0.0000,  0.0000,  0.0000)
  23 Mo    21.877604    0.000000    9.475400    ( 0.0000,  0.0000,  0.0000)
  24 S     21.877604    1.824427   10.950800    ( 0.0000,  0.0000,  0.0000)
  25 S     23.457604    0.912213    8.000000    ( 0.0000,  0.0000,  0.0000)
  26 Mo    20.297604    2.736640    9.475400    ( 0.0000,  0.0000,  0.0000)
  27 S     20.297604    4.561067   10.950800    ( 0.0000,  0.0000,  0.0000)
  28 S     21.877604    3.648854    8.000000    ( 0.0000,  0.0000,  0.0000)
  29 Mo    25.037604    0.000000    9.475400    ( 0.0000,  0.0000,  0.0000)
  30 S     25.037604    1.824427   10.950800    ( 0.0000,  0.0000,  0.0000)
  31 S     26.617604    0.912213    8.000000    ( 0.0000,  0.0000,  0.0000)
  32 Mo    23.457604    2.736640    9.475400    ( 0.0000,  0.0000,  0.0000)
  33 S     23.457604    4.561067   10.950800    ( 0.0000,  0.0000,  0.0000)
  34 S     25.037604    3.648854    8.000000    ( 0.0000,  0.0000,  0.0000)
  35 H     17.137604    2.267502   12.450800    ( 0.0000,  0.0000,  0.0000)

Unit cell:
           periodic     x           y           z      points  spacing
  1. axis:    yes   36.381875    0.000000    0.000000   156     0.2020
  2. axis:    yes   -3.160000    5.473281    0.000000    28     0.1955
  3. axis:    yes    0.000000    0.000000   18.950800    96     0.1974

  Lengths:  36.381875   6.320000  18.950800
  Angles:   90.000000  90.000000 120.000000

Effective grid spacing dv^(1/3) = 0.2080

     iter     time        total  log10-change:
                         energy   eigst   dens
iter:   1 16:49:48  -262.393387        c
iter:   2 16:50:23  -256.494462        c -1.17
iter:   3 16:50:58  -253.110181        c -1.25
iter:   4 16:51:33  -251.315202        c -1.30
iter:   5 16:52:09  -251.473623        c -1.32
iter:   6 16:52:46  -249.652558        c -1.36
iter:   7 16:53:21  -248.629857        c -1.46
iter:   8 16:53:56  -248.006650        c -1.58
iter:   9 16:54:31  -247.925248        c -1.83
iter:  10 16:55:06  -247.829386        c -1.98
iter:  11 16:55:41  -247.760843        c -2.06
iter:  12 16:56:15  -247.740268        c -2.18
iter:  13 16:56:49  -247.711841        c -2.33
iter:  14 16:57:23  -247.717217        c -2.40
iter:  15 16:57:58  -247.709648        c -2.45
iter:  16 16:58:33  -247.711194        c -2.51
iter:  17 16:59:08  -247.707473        c -2.56
iter:  18 16:59:44  -247.700111        c -2.67
iter:  19 17:00:20  -247.704893        c -2.77
iter:  20 17:00:55  -247.700696        c -2.85
iter:  21 17:01:31  -247.700950        c -2.95
iter:  22 17:02:05  -247.701344c       c -3.02
iter:  23 17:02:39  -247.700782c       c -3.11
iter:  24 17:03:14  -247.701821c       c -3.24
iter:  25 17:03:49  -247.698074        c -3.29
iter:  26 17:04:24  -247.699520        c -3.29
iter:  27 17:04:59  -247.699390c       c -3.48
iter:  28 17:05:36  -247.699193c       c -3.56
iter:  29 17:06:11  -247.699558c       c -3.71
iter:  30 17:06:46  -247.699592c       c -3.97
iter:  31 17:07:22  -247.699900c       c -4.14c

Converged after 31 iterations.

Dipole moment: (1.713613, -6.540859, -0.006575) |e|*Ang

Energy contributions relative to reference atoms: (reference = -1470020.087014)

Kinetic:       +239.123735
Potential:     -266.968410
External:        +0.000000
XC:            -220.339693
Entropy (-ST):   -0.659114
Local:           +0.814025
SIC:             +0.000000
--------------------------
Free energy:   -248.029457
Extrapolated:  -247.699900

Showing only first 2 kpts
 Kpt  Band  Eigenvalues  Occupancy
  0   147     -3.25829    1.58666
  0   148     -3.18351    1.29006
  0   149     -3.04501    0.62533
  0   150     -2.96136    0.32925

  1   147     -3.46261    1.93467
  1   148     -3.23145    1.49174
  1   149     -3.15951    1.17677
  1   150     -3.13928    1.07734


Fermi level: -3.12378

No gap
No difference between direct/indirect transitions
Timing:                              incl.     excl.
-----------------------------------------------------------
Basic WFS set positions:             0.001     0.001   0.0% |
Basis functions set positions:       0.176     0.176   0.0% |
LCAO WFS Initialize:                 1.272     0.241   0.0% |
 Hamiltonian:                        1.031     0.000   0.0% |
  Atomic:                            0.206     0.002   0.0% |
   XC Correction:                    0.203     0.203   0.0% |
  Calculate atomic Hamiltonians:     0.020     0.020   0.0% |
  Communicate:                       0.000     0.000   0.0% |
  Hartree integrate/restrict:        0.043     0.043   0.0% |
  Initialize Hamiltonian:            0.000     0.000   0.0% |
  Poisson:                           0.535     0.023   0.0% |
   Communicate from 1D:              0.077     0.077   0.0% |
   Communicate from 2D:              0.079     0.079   0.0% |
   Communicate to 1D:                0.088     0.088   0.0% |
   Communicate to 2D:                0.074     0.074   0.0% |
   FFT 1D:                           0.054     0.054   0.0% |
   FFT 2D:                           0.140     0.140   0.0% |
  XC 3D grid:                        0.177     0.177   0.0% |
  vbar:                              0.049     0.049   0.0% |
P tci:                               2.825     2.825   0.3% |
SCF-cycle:                        1063.382     0.045   0.0% |
 Density:                          756.545     0.001   0.0% |
  Atomic density matrices:           0.382     0.382   0.0% |
  Mix:                               7.684     7.684   0.7% |
  Multipole moments:                 0.016     0.016   0.0% |
  Normalize:                         0.012     0.012   0.0% |
  Pseudo density:                  748.450     0.045   0.0% |
   Calculate density matrix:         4.477     4.477   0.4% |
   Construct density:              743.926   743.926  69.3% |---------------------------|
   Symmetrize density:               0.001     0.001   0.0% |
 Hamiltonian:                       27.365     0.003   0.0% |
  Atomic:                            6.162     0.067   0.0% |
   XC Correction:                    6.095     6.095   0.6% |
  Calculate atomic Hamiltonians:     0.587     0.587   0.1% |
  Communicate:                       0.000     0.000   0.0% |
  Hartree integrate/restrict:        1.501     1.501   0.1% |
  Poisson:                          13.371     0.432   0.0% |
   Communicate from 1D:              1.978     1.978   0.2% |
   Communicate from 2D:              2.009     2.009   0.2% |
   Communicate to 1D:                1.907     1.907   0.2% |
   Communicate to 2D:                1.998     1.998   0.2% |
   FFT 1D:                           1.315     1.315   0.1% |
   FFT 2D:                           3.731     3.731   0.3% |
  XC 3D grid:                        5.150     5.150   0.5% |
  vbar:                              0.590     0.590   0.1% |
 LCAO eigensolver:                 279.428     0.116   0.0% |
  Calculate projections:             7.900     7.900   0.7% |
  DenseAtomicCorrection:            52.334    52.334   4.9% |-|
  Distribute overlap matrix:         0.189     0.189   0.0% |
  Orbital Layouts:                  73.494    73.494   6.9% |--|
  Potential matrix:                141.544   141.544  13.2% |----|
  Sum over cells:                    3.851     3.851   0.4% |
ST tci:                              0.610     0.610   0.1% |
Set symmetry:                        0.001     0.001   0.0% |
TCI: Evaluate splines:               0.405     0.405   0.0% |
mktci:                               0.014     0.014   0.0% |
Other:                               4.132     4.132   0.4% |
-----------------------------------------------------------
Total:                                      1072.818 100.0%

Memory usage: 1.50 GiB
Date: Thu Feb 12 17:07:22 2026
