
  ___ ___ ___ _ _ _  
 |   |   |_  | | | | 
 | | | | | . | | | | 
 |__ |  _|___|_____|  25.7.0
 |___|_|             

User:   mikei@Z790-AORUS-ELITE-AX
Date:   Sun Feb 22 16:20:33 2026
Arch:   x86_64
Pid:    89048
CWD:    /home/mikei/Dokumenty/code/cemea/ocx
Python: 3.10.16
gpaw:   /home/mikei/.pyenv/versions/cemea-env/lib/python3.10/site-packages/gpaw
_gpaw:  /home/mikei/.pyenv/versions/cemea-env/lib/python3.10/site-packages/
        _gpaw.cpython-310-x86_64-linux-gnu.so
ase:    /home/mikei/.pyenv/versions/cemea-env/lib/python3.10/site-packages/ase (version 3.27.0)
numpy:  /home/mikei/.pyenv/versions/cemea-env/lib/python3.10/site-packages/numpy (version 2.2.6)
scipy:  /home/mikei/.pyenv/versions/cemea-env/lib/python3.10/site-packages/scipy (version 1.15.3)
libxc:  2.x.y
units:  Angstrom and eV
cores: 1
OpenMP: False
OMP_NUM_THREADS: 1

Input parameters:
  basis: dzp
  convergence: {density: 0.0001,
                eigenstates: 1e-05,
                energy: 1e-05}
  kpts: [4 4 1]
  mode: lcao

System changes: positions, numbers, cell, pbc, initial_charges, initial_magmoms 

Initialize ...

species:
  Ni:
    name: Nickel
    id: 1802175e8de9ea26d9f4394ec1a7d564
    Z: 28.0
    valence: 16
    core: 12
    charge: 0.0
    file: /home/mikei/.pyenv/versions/cemea-env/lib/python3.10/site-packages/gpaw_data/setups/Ni.LDA.gz
    compensation charges: {type: gauss,
                           rc: 0.36,
                           lmax: 2}
    cutoffs: {filter: 2.14,
              core: 1.98}
    projectors:
      #              energy  rcut
      - 4s(2.00)    -5.858   1.164
      - 3p(6.00)   -71.266   1.207
      - 4p(0.00)    -1.338   1.207
      - 3d(8.00)    -9.141   1.138
      -  s          21.353   1.164
      -  d          18.071   1.138
  
    # LCAO basis set for Ni:
    #   Name: dzp
    #   File: /home/mikei/.pyenv/versions/cemea-env/lib/python3.10/site-packages/gpaw_data/setups/Ni.dzp.basis.gz
    #   Number of radial functions: 9
    #   Number of spherical harmonics: 27
    #     l=0, rc=8.5156 Bohr: 4s-sz confined orbital
    #     l=1, rc=2.9375 Bohr: 3p-sz confined orbital
    #     l=1, rc=12.4062 Bohr: 4p-sz confined orbital
    #     l=2, rc=4.6875 Bohr: 3d-sz confined orbital
    #     l=0, rc=4.9688 Bohr: 4s-dz split-valence wave
    #     l=1, rc=2.0781 Bohr: 3p-dz split-valence wave
    #     l=1, rc=7.5469 Bohr: 4p-dz split-valence wave
    #     l=2, rc=2.9375 Bohr: 3d-dz split-valence wave
    #     l=1, rc=8.5156 Bohr: p-type Gaussian polarization
    #   Number of RI-basis functions 0

  Mo:
    name: Molybdenum
    id: ac24daaf086600a00ce6d19a74574df1
    Z: 42.0
    valence: 14
    core: 28
    charge: 0.0
    file: /home/mikei/.pyenv/versions/cemea-env/lib/python3.10/site-packages/gpaw_data/setups/Mo.LDA.gz
    compensation charges: {type: gauss,
                           rc: 0.38,
                           lmax: 2}
    cutoffs: {filter: 2.16,
              core: 1.42}
    projectors:
      #              energy  rcut
      - 4s(2.00)   -64.384   1.238
      - 5s(1.00)    -4.319   1.238
      - 4p(6.00)   -38.595   1.296
      - 5p(0.00)    -1.161   1.296
      - 4d(5.00)    -3.933   1.296
      -  d          23.278   1.296
  
    # LCAO basis set for Mo:
    #   Name: dzp
    #   File: /home/mikei/.pyenv/versions/cemea-env/lib/python3.10/site-packages/gpaw_data/setups/Mo.dzp.basis.gz
    #   Number of radial functions: 11
    #   Number of spherical harmonics: 29
    #     l=0, rc=3.5469 Bohr: 4s-sz confined orbital
    #     l=0, rc=10.0469 Bohr: 5s-sz confined orbital
    #     l=1, rc=4.0781 Bohr: 4p-sz confined orbital
    #     l=1, rc=14.0938 Bohr: 5p-sz confined orbital
    #     l=2, rc=7.2031 Bohr: 4d-sz confined orbital
    #     l=0, rc=2.1250 Bohr: 4s-dz split-valence wave
    #     l=0, rc=6.1250 Bohr: 5s-dz split-valence wave
    #     l=1, rc=2.5469 Bohr: 4p-dz split-valence wave
    #     l=1, rc=8.7656 Bohr: 5p-dz split-valence wave
    #     l=2, rc=4.2344 Bohr: 4d-dz split-valence wave
    #     l=1, rc=10.0469 Bohr: p-type Gaussian polarization
    #   Number of RI-basis functions 0

  C:
    name: Carbon
    id: d60576a1f549371a163e72552ca58787
    Z: 6.0
    valence: 4
    core: 2
    charge: 0.0
    file: /home/mikei/.pyenv/versions/cemea-env/lib/python3.10/site-packages/gpaw_data/setups/C.LDA.gz
    compensation charges: {type: gauss,
                           rc: 0.20,
                           lmax: 2}
    cutoffs: {filter: 1.14,
              core: 1.14}
    projectors:
      #              energy  rcut
      - 2s(2.00)   -13.639   0.635
      - 2p(2.00)    -5.414   0.635
      -  s          13.573   0.635
      -  p          21.797   0.635
      -  d           0.000   0.635
  
    # LCAO basis set for C:
    #   Name: dzp
    #   File: /home/mikei/.pyenv/versions/cemea-env/lib/python3.10/site-packages/gpaw_data/setups/C.dzp.basis.gz
    #   Number of radial functions: 5
    #   Number of spherical harmonics: 13
    #     l=0, rc=5.5469 Bohr: 2s-sz confined orbital
    #     l=1, rc=6.6719 Bohr: 2p-sz confined orbital
    #     l=0, rc=3.0312 Bohr: 2s-dz split-valence wave
    #     l=1, rc=3.7500 Bohr: 2p-dz split-valence wave
    #     l=2, rc=6.6719 Bohr: d-type Gaussian polarization
    #   Number of RI-basis functions 0

  Pt:
    name: Platinum
    id: 5a6399afde4becbffda6f57f3efd9534
    Z: 78.0
    valence: 16
    core: 62
    charge: 0.0
    file: /home/mikei/.pyenv/versions/cemea-env/lib/python3.10/site-packages/gpaw_data/setups/Pt.LDA.gz
    compensation charges: {type: gauss,
                           rc: 0.41,
                           lmax: 2}
    cutoffs: {filter: 2.26,
              core: 2.26}
    projectors:
      #              energy  rcut
      - 6s(1.00)    -5.930   1.307
      - 5p(6.00)   -56.318   1.371
      - 6p(0.00)    -0.962   1.371
      - 5d(9.00)    -6.387   1.307
      -  s          21.281   1.307
      -  d          20.825   1.307
  
    # LCAO basis set for Pt:
    #   Name: dzp
    #   File: /home/mikei/.pyenv/versions/cemea-env/lib/python3.10/site-packages/gpaw_data/setups/Pt.dzp.basis.gz
    #   Number of radial functions: 9
    #   Number of spherical harmonics: 27
    #     l=0, rc=8.5938 Bohr: 6s-sz confined orbital
    #     l=1, rc=3.5781 Bohr: 5p-sz confined orbital
    #     l=1, rc=13.6250 Bohr: 6p-sz confined orbital
    #     l=2, rc=6.0938 Bohr: 5d-sz confined orbital
    #     l=0, rc=5.0625 Bohr: 6s-dz split-valence wave
    #     l=1, rc=2.4219 Bohr: 5p-dz split-valence wave
    #     l=1, rc=8.3281 Bohr: 6p-dz split-valence wave
    #     l=2, rc=3.6406 Bohr: 5d-dz split-valence wave
    #     l=1, rc=8.5938 Bohr: p-type Gaussian polarization
    #   Number of RI-basis functions 0

Reference energy: -3371248.663505  # eV

Spin-paired calculation

Convergence criteria:
 Maximum [total energy] change in last 3 cyles: 1e-05 eV / valence electron
 Maximum integral of absolute [dens]ity change: 0.0001 electrons / valence electron
 Maximum integral of absolute [eigenst]ate change: 1e-05 eV^2 / valence electron
 Maximum number of scf [iter]ations: 333
 (Square brackets indicate name in SCF output, whereas a 'c' in
 the SCF output indicates the quantity has converged.)

Symmetries present (total): 1

  ( 1  0  0)
  ( 0  1  0)
  ( 0  0  1)

16 k-points: 4 x 4 x 1 Monkhorst-Pack grid
8 k-points in the irreducible part of the Brillouin zone
       k-points in crystal coordinates                weights
   0:     0.12500000   -0.37500000    0.00000000          2/16
   1:     0.12500000   -0.12500000    0.00000000          2/16
   2:     0.12500000    0.12500000    0.00000000          2/16
   3:     0.12500000    0.37500000    0.00000000          2/16
   4:     0.37500000   -0.37500000    0.00000000          2/16
   5:     0.37500000   -0.12500000    0.00000000          2/16
   6:     0.37500000    0.12500000    0.00000000          2/16
   7:     0.37500000    0.37500000    0.00000000          2/16

Wave functions: LCAO
  Diagonalizer: Serial LAPACK
  Atomic Correction: dense with blas
  Data-type: complex
 

Occupation numbers: Fermi-Dirac:
  width: 0.1000  # eV
 

Eigensolver
   LCAO using direct dense diagonalizer 

Densities:
  Coarse grid: 36*36*128 grid
  Fine grid: 72*72*256 grid
  Total Charge: 0.000000 

Density mixing:
  Method: separate
  Backend: pulay
  Linear mixing parameter: 0.05
  old densities: 5
  Damping of long wavelength oscillations: 50 

Hamiltonian:
  XC and Coulomb potentials evaluated on a 72*72*256 grid
  Using the LDA Exchange-Correlation functional
  Interpolation: tri-quintic (5. degree polynomial)
  Poisson solver: FastPoissonSolver using
    Stencil: 6*3+1=19 point O(h^6) finite-difference Laplacian
    FFT axes: [np.int64(0), np.int64(1), np.int64(2)]
    FST axes: []
 

Memory estimate:
  Process memory now: 4595.48 MiB
  Calculator: 1070.18 MiB
    Density: 233.00 MiB
      Arrays: 32.91 MiB
      Localized functions: 187.44 MiB
      Mixer: 12.66 MiB
    Hamiltonian: 35.29 MiB
      Arrays: 21.52 MiB
      XC: 0.00 MiB
      Poisson: 0.00 MiB
      vbar: 13.77 MiB
    Wavefunctions: 801.90 MiB
      C [qnM]: 71.32 MiB
      S, T [2 x qmm]: 418.97 MiB
      P [aqMi]: 8.80 MiB
      BasisFunctions: 302.81 MiB
      Eigensolver: 0.00 MiB

Total number of cores used: 1

Number of atoms: 50
Number of atomic orbitals: 1310
Number of bands in calculation: 446
Number of valence electrons: 736
Bands to converge: occupied

... initialized

Initializing position-dependent things.

Density initialized from atomic densities
      .-----------------.  
     /|                 |  
    / |                 |  
   /  |                 |  
  /   |                 |  
 *    |                 |  
 |    |                 |  
 |    |                 |  
 |    |                 |  
 |    |                 |  
 |    | Pt    Pt        |  
 |    |   Mo        Mo  |  
 |    |                 |  
 |    |Mo C      Mo C   |  
 |  Mo|       Mo        |  
 |    |                 |  
 |    |C         C      |  
 Mo Ni|   NMo   Ni      |  
 | Ni | NNi   NNi   Ni  |  
 |    |                 |  
 Ni   NNi   NNi   Ni    |  
 |  NNi   NNi   NNi     |  
 | Ni | NNi   NNi   Ni  |  
 |    |                 |  
 Ni   NNi   NNi   Ni    |  
 |   Ni    Ni    Ni     |  
 |    |                 |  
 |    |                 |  
 |    |                 |  
 |    |                 |  
 |    |                 |  
 |    .-----------------.  
 |   /                 /   
 |  /                 /    
 | /                 /     
 |/                 /      
 *-----------------*       

Atomic positions and initial magnetic moments

Positions:
   0 Ni     1.244508    1.244508    8.000000    ( 0.0000,  0.0000,  0.0000)
   1 Ni     3.733524    1.244508    8.000000    ( 0.0000,  0.0000,  0.0000)
   2 Ni     6.222540    1.244508    8.000000    ( 0.0000,  0.0000,  0.0000)
   3 Ni     1.244508    3.733524    8.000000    ( 0.0000,  0.0000,  0.0000)
   4 Ni     3.733524    3.733524    8.000000    ( 0.0000,  0.0000,  0.0000)
   5 Ni     6.222540    3.733524    8.000000    ( 0.0000,  0.0000,  0.0000)
   6 Ni     1.244508    6.222540    8.000000    ( 0.0000,  0.0000,  0.0000)
   7 Ni     3.733524    6.222540    8.000000    ( 0.0000,  0.0000,  0.0000)
   8 Ni     6.222540    6.222540    8.000000    ( 0.0000,  0.0000,  0.0000)
   9 Ni     0.000000    0.000000    9.760000    ( 0.0000,  0.0000,  0.0000)
  10 Ni     2.489016    0.000000    9.760000    ( 0.0000,  0.0000,  0.0000)
  11 Ni     4.978032    0.000000    9.760000    ( 0.0000,  0.0000,  0.0000)
  12 Ni     0.000000    2.489016    9.760000    ( 0.0000,  0.0000,  0.0000)
  13 Ni     2.489016    2.489016    9.760000    ( 0.0000,  0.0000,  0.0000)
  14 Ni     4.978032    2.489016    9.760000    ( 0.0000,  0.0000,  0.0000)
  15 Ni     0.000000    4.978032    9.760000    ( 0.0000,  0.0000,  0.0000)
  16 Ni     2.489016    4.978032    9.760000    ( 0.0000,  0.0000,  0.0000)
  17 Ni     4.978032    4.978032    9.760000    ( 0.0000,  0.0000,  0.0000)
  18 Ni     1.244508    1.244508   11.520000    ( 0.0000,  0.0000,  0.0000)
  19 Ni     3.733524    1.244508   11.520000    ( 0.0000,  0.0000,  0.0000)
  20 Ni     6.222540    1.244508   11.520000    ( 0.0000,  0.0000,  0.0000)
  21 Ni     1.244508    3.733524   11.520000    ( 0.0000,  0.0000,  0.0000)
  22 Ni     3.733524    3.733524   11.520000    ( 0.0000,  0.0000,  0.0000)
  23 Ni     6.222540    3.733524   11.520000    ( 0.0000,  0.0000,  0.0000)
  24 Ni     1.244508    6.222540   11.520000    ( 0.0000,  0.0000,  0.0000)
  25 Ni     3.733524    6.222540   11.520000    ( 0.0000,  0.0000,  0.0000)
  26 Ni     6.222540    6.222540   11.520000    ( 0.0000,  0.0000,  0.0000)
  27 Ni     0.000000    0.000000   13.280000    ( 0.0000,  0.0000,  0.0000)
  28 Ni     2.489016    0.000000   13.280000    ( 0.0000,  0.0000,  0.0000)
  29 Ni     4.978032    0.000000   13.280000    ( 0.0000,  0.0000,  0.0000)
  30 Ni     0.000000    2.489016   13.280000    ( 0.0000,  0.0000,  0.0000)
  31 Ni     2.489016    2.489016   13.280000    ( 0.0000,  0.0000,  0.0000)
  32 Ni     4.978032    2.489016   13.280000    ( 0.0000,  0.0000,  0.0000)
  33 Ni     0.000000    4.978032   13.280000    ( 0.0000,  0.0000,  0.0000)
  34 Ni     2.489016    4.978032   13.280000    ( 0.0000,  0.0000,  0.0000)
  35 Ni     4.978032    4.978032   13.280000    ( 0.0000,  0.0000,  0.0000)
  36 Mo     0.000000    0.000000   15.480000    ( 0.0000,  0.0000,  0.0000)
  37 Mo     2.060000    2.060000   17.540000    ( 0.0000,  0.0000,  0.0000)
  38 C      2.060000    2.060000   15.480000    ( 0.0000,  0.0000,  0.0000)
  39 Mo     0.000000    4.120000   15.480000    ( 0.0000,  0.0000,  0.0000)
  40 Mo     2.060000    6.180000   17.540000    ( 0.0000,  0.0000,  0.0000)
  41 C      2.060000    6.180000   15.480000    ( 0.0000,  0.0000,  0.0000)
  42 Mo     4.120000    0.000000   15.480000    ( 0.0000,  0.0000,  0.0000)
  43 Mo     6.180000    2.060000   17.540000    ( 0.0000,  0.0000,  0.0000)
  44 C      6.180000    2.060000   15.480000    ( 0.0000,  0.0000,  0.0000)
  45 Mo     4.120000    4.120000   15.480000    ( 0.0000,  0.0000,  0.0000)
  46 Mo     6.180000    6.180000   17.540000    ( 0.0000,  0.0000,  0.0000)
  47 C      6.180000    6.180000   15.480000    ( 0.0000,  0.0000,  0.0000)
  48 Pt     1.991786    3.191786   19.340000    ( 0.0000,  0.0000,  0.0000)
  49 Pt     4.391786    3.191786   19.340000    ( 0.0000,  0.0000,  0.0000)

Unit cell:
           periodic     x           y           z      points  spacing
  1. axis:    yes    7.467048    0.000000    0.000000    36     0.2074
  2. axis:    yes    0.000000    7.467048    0.000000    36     0.2074
  3. axis:    yes    0.000000    0.000000   25.540000   128     0.1995

  Lengths:   7.467048   7.467048  25.540000
  Angles:   90.000000  90.000000  90.000000

Effective grid spacing dv^(1/3) = 0.2048

     iter     time        total  log10-change:
                         energy   eigst   dens
iter:   1 16:21:04 -1176.862247        c
iter:   2 16:22:39 -3949.571155        c -0.91
iter:   3 16:24:12  -713.267517        c -0.44
iter:   4 16:25:43  -483.815264        c -1.12
iter:   5 16:27:15  -417.583988        c -1.35
iter:   6 16:28:47  -444.963675        c -1.49
iter:   7 16:30:24  -464.646383        c -1.32
iter:   8 16:31:58  -505.270415        c -1.45
iter:   9 16:33:34  -510.572781        c -1.36
iter:  10 16:35:06  -508.230647        c -1.38
iter:  11 16:36:40  -494.415558        c -1.42
iter:  12 16:38:11  -663.344531        c -1.44
iter:  13 16:39:42  -444.038661        c -1.00
iter:  14 16:41:14  -422.414135        c -1.59
iter:  15 16:42:48  -417.358668        c -1.68
iter:  16 16:44:25  -432.339254        c -1.66
iter:  17 16:45:57  -429.744777        c -1.63
iter:  18 16:47:28  -544.518635        c -1.58
iter:  19 16:48:59  -423.621194        c -1.12
iter:  20 16:50:31  -419.182297        c -1.68
iter:  21 16:52:03  -398.728944        c -1.69
iter:  22 16:53:34  -390.362636        c -1.80
iter:  23 16:55:05  -398.074828        c -1.86
iter:  24 16:56:37  -391.829054        c -1.65
iter:  25 16:58:09  -390.090368        c -1.95
iter:  26 16:59:40  -395.473681        c -1.94
iter:  27 17:01:12  -398.819245        c -1.86
iter:  28 17:02:43  -404.203298        c -1.85
iter:  29 17:04:14  -411.414415        c -1.74
iter:  30 17:05:45  -397.747604        c -1.56
iter:  31 17:07:17  -398.077619        c -1.92
iter:  32 17:08:49  -395.448067        c -1.93
iter:  33 17:10:21  -392.949031        c -1.97
iter:  34 17:11:53  -393.224570        c -2.01
iter:  35 17:13:27  -411.001170        c -1.95
iter:  36 17:14:59  -392.614841        c -1.59
iter:  37 17:16:30  -389.439693        c -2.00
iter:  38 17:18:03  -386.617935        c -2.11
iter:  39 17:19:35  -387.612883        c -2.48
iter:  40 17:21:07  -387.322273        c -2.22
iter:  41 17:22:39  -388.057195        c -2.27
iter:  42 17:24:20  -386.695809        c -2.14
iter:  43 17:25:55  -386.669124        c -2.55
iter:  44 17:27:26  -386.986842        c -2.49
iter:  45 17:28:58  -386.483580        c -2.41
iter:  46 17:30:30  -386.310730        c -2.72
iter:  47 17:32:01  -386.251928        c -2.89
iter:  48 17:33:33  -386.243309        c -3.00
iter:  49 17:35:07  -386.319874        c -3.06
iter:  50 17:36:41  -386.341327        c -2.76
iter:  51 17:38:13  -386.217978        c -2.73
iter:  52 17:39:51  -386.237825        c -2.98
iter:  53 17:41:22  -386.225236        c -3.04
iter:  54 17:42:54  -386.266230        c -2.86
iter:  55 17:44:31  -386.283561        c -2.77
iter:  56 17:46:05  -386.200084        c -2.97
iter:  57 17:47:36  -386.223045        c -3.09
iter:  58 17:49:16  -386.207118        c -3.12
iter:  59 17:50:48  -386.238285        c -3.40
iter:  60 17:52:19  -386.208866        c -3.18
iter:  61 17:53:51  -386.201441        c -3.55
iter:  62 17:55:26  -386.202152        c -3.23
iter:  63 17:56:57  -386.202094c       c -3.35
iter:  64 17:58:29  -386.200690c       c -3.50
iter:  65 18:00:01  -386.200957c       c -3.36
iter:  66 18:01:33  -386.207796c       c -3.47
iter:  67 18:03:04  -386.268256        c -3.32
iter:  68 18:04:36  -386.206698        c -2.97
iter:  69 18:06:13  -386.199422        c -3.73
iter:  70 18:07:44  -386.203153c       c -3.49
iter:  71 18:09:16  -386.201993c       c -3.71
iter:  72 18:10:50  -386.205165c       c -3.62
iter:  73 18:12:23  -386.203352c       c -3.78
iter:  74 18:14:02  -386.200531c       c -3.86
iter:  75 18:15:33  -386.213316        c -3.83
iter:  76 18:17:08  -386.203401        c -3.57
iter:  77 18:18:42  -386.205194        c -4.20c
iter:  78 18:20:20  -386.200841c       c -4.06c

Converged after 78 iterations.

Dipole moment: (-7.895264, -7.356963, 0.258775) |e|*Ang

Energy contributions relative to reference atoms: (reference = -3371248.663505)

Kinetic:        +33.501685
Potential:      -26.365017
External:        +0.000000
XC:            -390.138492
Entropy (-ST):   -3.765267
Local:           -1.316384
SIC:             +0.000000
--------------------------
Free energy:   -388.083475
Extrapolated:  -386.200841

Showing only first 2 kpts
 Kpt  Band  Eigenvalues  Occupancy
  0   366      0.80040    1.21629
  0   367      0.81092    1.16562
  0   368      0.83080    1.06765
  0   369      0.84881    0.97771

  1   366      0.78140    1.30477
  1   367      0.79849    1.22537
  1   368      0.80461    1.19615
  1   369      0.82002    1.12106


Fermi level: 0.84435

No gap
No difference between direct/indirect transitions
Timing:                              incl.     excl.
-----------------------------------------------------------
Basic WFS set positions:             0.000     0.000   0.0% |
Basis functions set positions:       0.185     0.185   0.0% |
LCAO WFS Initialize:                 0.421     0.094   0.0% |
 Hamiltonian:                        0.327     0.000   0.0% |
  Atomic:                            0.162     0.002   0.0% |
   XC Correction:                    0.160     0.160   0.0% |
  Calculate atomic Hamiltonians:     0.026     0.026   0.0% |
  Communicate:                       0.000     0.000   0.0% |
  Hartree integrate/restrict:        0.010     0.010   0.0% |
  Initialize Hamiltonian:            0.000     0.000   0.0% |
  Poisson:                           0.080     0.006   0.0% |
   Communicate from 1D:              0.008     0.008   0.0% |
   Communicate from 2D:              0.006     0.006   0.0% |
   Communicate to 1D:                0.011     0.011   0.0% |
   Communicate to 2D:                0.010     0.010   0.0% |
   FFT 1D:                           0.007     0.007   0.0% |
   FFT 2D:                           0.032     0.032   0.0% |
  XC 3D grid:                        0.046     0.046   0.0% |
  vbar:                              0.003     0.003   0.0% |
P tci:                               5.359     5.359   0.1% |
SCF-cycle:                        7174.007     0.219   0.0% |
 Density:                         5560.451     0.001   0.0% |
  Atomic density matrices:           1.469     1.469   0.0% |
  Mix:                               7.874     7.874   0.1% |
  Multipole moments:                 0.022     0.022   0.0% |
  Normalize:                         0.009     0.009   0.0% |
  Pseudo density:                 5551.076     0.030   0.0% |
   Calculate density matrix:        12.337    12.337   0.2% |
   Construct density:             5538.707  5538.707  77.1% |------------------------------|
   Symmetrize density:               0.001     0.001   0.0% |
 Hamiltonian:                       25.600     0.003   0.0% |
  Atomic:                           12.468     0.137   0.0% |
   XC Correction:                   12.331    12.331   0.2% |
  Calculate atomic Hamiltonians:     2.047     2.047   0.0% |
  Communicate:                       0.000     0.000   0.0% |
  Hartree integrate/restrict:        0.468     0.468   0.0% |
  Poisson:                           5.565     0.438   0.0% |
   Communicate from 1D:              0.619     0.619   0.0% |
   Communicate from 2D:              0.463     0.463   0.0% |
   Communicate to 1D:                0.565     0.565   0.0% |
   Communicate to 2D:                0.786     0.786   0.0% |
   FFT 1D:                           0.616     0.616   0.0% |
   FFT 2D:                           2.077     2.077   0.0% |
  XC 3D grid:                        4.545     4.545   0.1% |
  vbar:                              0.504     0.504   0.0% |
 LCAO eigensolver:                1587.737     2.413   0.0% |
  Calculate projections:            63.883    63.883   0.9% |
  DenseAtomicCorrection:           235.950   235.950   3.3% ||
  Distribute overlap matrix:         4.615     4.615   0.1% |
  Orbital Layouts:                 326.752   326.752   4.5% |-|
  Potential matrix:                853.903   853.903  11.9% |----|
  Sum over cells:                  100.220   100.220   1.4% ||
ST tci:                              2.038     2.038   0.0% |
Set symmetry:                        0.000     0.000   0.0% |
TCI: Evaluate splines:               0.587     0.587   0.0% |
mktci:                               0.026     0.026   0.0% |
Other:                               4.303     4.303   0.1% |
-----------------------------------------------------------
Total:                                      7186.927 100.0%

Memory usage: 4.49 GiB
Date: Sun Feb 22 18:20:20 2026
