
  ___ ___ ___ _ _ _  
 |   |   |_  | | | | 
 | | | | | . | | | | 
 |__ |  _|___|_____|  25.7.0
 |___|_|             

User:   mikei@Z790-AORUS-ELITE-AX
Date:   Sun Feb 22 18:20:20 2026
Arch:   x86_64
Pid:    89048
CWD:    /home/mikei/Dokumenty/code/cemea/ocx
Python: 3.10.16
gpaw:   /home/mikei/.pyenv/versions/cemea-env/lib/python3.10/site-packages/gpaw
_gpaw:  /home/mikei/.pyenv/versions/cemea-env/lib/python3.10/site-packages/
        _gpaw.cpython-310-x86_64-linux-gnu.so
ase:    /home/mikei/.pyenv/versions/cemea-env/lib/python3.10/site-packages/ase (version 3.27.0)
numpy:  /home/mikei/.pyenv/versions/cemea-env/lib/python3.10/site-packages/numpy (version 2.2.6)
scipy:  /home/mikei/.pyenv/versions/cemea-env/lib/python3.10/site-packages/scipy (version 1.15.3)
libxc:  2.x.y
units:  Angstrom and eV
cores: 1
OpenMP: False
OMP_NUM_THREADS: 1

Input parameters:
  basis: dzp
  convergence: {density: 0.0001,
                eigenstates: 1e-05,
                energy: 1e-05}
  kpts: [4 4 1]
  mode: lcao

System changes: positions, numbers, cell, pbc, initial_charges, initial_magmoms 

Initialize ...

species:
  Ni:
    name: Nickel
    id: 1802175e8de9ea26d9f4394ec1a7d564
    Z: 28.0
    valence: 16
    core: 12
    charge: 0.0
    file: /home/mikei/.pyenv/versions/cemea-env/lib/python3.10/site-packages/gpaw_data/setups/Ni.LDA.gz
    compensation charges: {type: gauss,
                           rc: 0.36,
                           lmax: 2}
    cutoffs: {filter: 2.14,
              core: 1.98}
    projectors:
      #              energy  rcut
      - 4s(2.00)    -5.858   1.164
      - 3p(6.00)   -71.266   1.207
      - 4p(0.00)    -1.338   1.207
      - 3d(8.00)    -9.141   1.138
      -  s          21.353   1.164
      -  d          18.071   1.138
  
    # LCAO basis set for Ni:
    #   Name: dzp
    #   File: /home/mikei/.pyenv/versions/cemea-env/lib/python3.10/site-packages/gpaw_data/setups/Ni.dzp.basis.gz
    #   Number of radial functions: 9
    #   Number of spherical harmonics: 27
    #     l=0, rc=8.5156 Bohr: 4s-sz confined orbital
    #     l=1, rc=2.9375 Bohr: 3p-sz confined orbital
    #     l=1, rc=12.4062 Bohr: 4p-sz confined orbital
    #     l=2, rc=4.6875 Bohr: 3d-sz confined orbital
    #     l=0, rc=4.9688 Bohr: 4s-dz split-valence wave
    #     l=1, rc=2.0781 Bohr: 3p-dz split-valence wave
    #     l=1, rc=7.5469 Bohr: 4p-dz split-valence wave
    #     l=2, rc=2.9375 Bohr: 3d-dz split-valence wave
    #     l=1, rc=8.5156 Bohr: p-type Gaussian polarization
    #   Number of RI-basis functions 0

  Mo:
    name: Molybdenum
    id: ac24daaf086600a00ce6d19a74574df1
    Z: 42.0
    valence: 14
    core: 28
    charge: 0.0
    file: /home/mikei/.pyenv/versions/cemea-env/lib/python3.10/site-packages/gpaw_data/setups/Mo.LDA.gz
    compensation charges: {type: gauss,
                           rc: 0.38,
                           lmax: 2}
    cutoffs: {filter: 2.16,
              core: 1.42}
    projectors:
      #              energy  rcut
      - 4s(2.00)   -64.384   1.238
      - 5s(1.00)    -4.319   1.238
      - 4p(6.00)   -38.595   1.296
      - 5p(0.00)    -1.161   1.296
      - 4d(5.00)    -3.933   1.296
      -  d          23.278   1.296
  
    # LCAO basis set for Mo:
    #   Name: dzp
    #   File: /home/mikei/.pyenv/versions/cemea-env/lib/python3.10/site-packages/gpaw_data/setups/Mo.dzp.basis.gz
    #   Number of radial functions: 11
    #   Number of spherical harmonics: 29
    #     l=0, rc=3.5469 Bohr: 4s-sz confined orbital
    #     l=0, rc=10.0469 Bohr: 5s-sz confined orbital
    #     l=1, rc=4.0781 Bohr: 4p-sz confined orbital
    #     l=1, rc=14.0938 Bohr: 5p-sz confined orbital
    #     l=2, rc=7.2031 Bohr: 4d-sz confined orbital
    #     l=0, rc=2.1250 Bohr: 4s-dz split-valence wave
    #     l=0, rc=6.1250 Bohr: 5s-dz split-valence wave
    #     l=1, rc=2.5469 Bohr: 4p-dz split-valence wave
    #     l=1, rc=8.7656 Bohr: 5p-dz split-valence wave
    #     l=2, rc=4.2344 Bohr: 4d-dz split-valence wave
    #     l=1, rc=10.0469 Bohr: p-type Gaussian polarization
    #   Number of RI-basis functions 0

  C:
    name: Carbon
    id: d60576a1f549371a163e72552ca58787
    Z: 6.0
    valence: 4
    core: 2
    charge: 0.0
    file: /home/mikei/.pyenv/versions/cemea-env/lib/python3.10/site-packages/gpaw_data/setups/C.LDA.gz
    compensation charges: {type: gauss,
                           rc: 0.20,
                           lmax: 2}
    cutoffs: {filter: 1.14,
              core: 1.14}
    projectors:
      #              energy  rcut
      - 2s(2.00)   -13.639   0.635
      - 2p(2.00)    -5.414   0.635
      -  s          13.573   0.635
      -  p          21.797   0.635
      -  d           0.000   0.635
  
    # LCAO basis set for C:
    #   Name: dzp
    #   File: /home/mikei/.pyenv/versions/cemea-env/lib/python3.10/site-packages/gpaw_data/setups/C.dzp.basis.gz
    #   Number of radial functions: 5
    #   Number of spherical harmonics: 13
    #     l=0, rc=5.5469 Bohr: 2s-sz confined orbital
    #     l=1, rc=6.6719 Bohr: 2p-sz confined orbital
    #     l=0, rc=3.0312 Bohr: 2s-dz split-valence wave
    #     l=1, rc=3.7500 Bohr: 2p-dz split-valence wave
    #     l=2, rc=6.6719 Bohr: d-type Gaussian polarization
    #   Number of RI-basis functions 0

  Pt:
    name: Platinum
    id: 5a6399afde4becbffda6f57f3efd9534
    Z: 78.0
    valence: 16
    core: 62
    charge: 0.0
    file: /home/mikei/.pyenv/versions/cemea-env/lib/python3.10/site-packages/gpaw_data/setups/Pt.LDA.gz
    compensation charges: {type: gauss,
                           rc: 0.41,
                           lmax: 2}
    cutoffs: {filter: 2.26,
              core: 2.26}
    projectors:
      #              energy  rcut
      - 6s(1.00)    -5.930   1.307
      - 5p(6.00)   -56.318   1.371
      - 6p(0.00)    -0.962   1.371
      - 5d(9.00)    -6.387   1.307
      -  s          21.281   1.307
      -  d          20.825   1.307
  
    # LCAO basis set for Pt:
    #   Name: dzp
    #   File: /home/mikei/.pyenv/versions/cemea-env/lib/python3.10/site-packages/gpaw_data/setups/Pt.dzp.basis.gz
    #   Number of radial functions: 9
    #   Number of spherical harmonics: 27
    #     l=0, rc=8.5938 Bohr: 6s-sz confined orbital
    #     l=1, rc=3.5781 Bohr: 5p-sz confined orbital
    #     l=1, rc=13.6250 Bohr: 6p-sz confined orbital
    #     l=2, rc=6.0938 Bohr: 5d-sz confined orbital
    #     l=0, rc=5.0625 Bohr: 6s-dz split-valence wave
    #     l=1, rc=2.4219 Bohr: 5p-dz split-valence wave
    #     l=1, rc=8.3281 Bohr: 6p-dz split-valence wave
    #     l=2, rc=3.6406 Bohr: 5d-dz split-valence wave
    #     l=1, rc=8.5938 Bohr: p-type Gaussian polarization
    #   Number of RI-basis functions 0

  H:
    name: Hydrogen
    id: 4766778ce56282eaa64abeb28b7c1de3
    Z: 1.0
    valence: 1
    core: 0
    charge: 0.0
    file: /home/mikei/.pyenv/versions/cemea-env/lib/python3.10/site-packages/gpaw_data/setups/H.LDA.gz
    compensation charges: {type: gauss,
                           rc: 0.15,
                           lmax: 2}
    cutoffs: {filter: 0.85,
              core: 0.53}
    projectors:
      #              energy  rcut
      - 1s(1.00)    -6.353   0.476
      -  s          20.858   0.476
      -  p           0.000   0.476
  
    # LCAO basis set for H:
    #   Name: dzp
    #   File: /home/mikei/.pyenv/versions/cemea-env/lib/python3.10/site-packages/gpaw_data/setups/H.dzp.basis.gz
    #   Number of radial functions: 3
    #   Number of spherical harmonics: 5
    #     l=0, rc=6.4219 Bohr: 1s-sz confined orbital
    #     l=0, rc=3.6094 Bohr: 1s-dz split-valence wave
    #     l=1, rc=6.4219 Bohr: p-type Gaussian polarization
    #   Number of RI-basis functions 0

Reference energy: -3371260.792463  # eV

Spin-paired calculation

Convergence criteria:
 Maximum [total energy] change in last 3 cyles: 1e-05 eV / valence electron
 Maximum integral of absolute [dens]ity change: 0.0001 electrons / valence electron
 Maximum integral of absolute [eigenst]ate change: 1e-05 eV^2 / valence electron
 Maximum number of scf [iter]ations: 333
 (Square brackets indicate name in SCF output, whereas a 'c' in
 the SCF output indicates the quantity has converged.)

Symmetries present (total): 1

  ( 1  0  0)
  ( 0  1  0)
  ( 0  0  1)

16 k-points: 4 x 4 x 1 Monkhorst-Pack grid
8 k-points in the irreducible part of the Brillouin zone
       k-points in crystal coordinates                weights
   0:     0.12500000   -0.37500000    0.00000000          2/16
   1:     0.12500000   -0.12500000    0.00000000          2/16
   2:     0.12500000    0.12500000    0.00000000          2/16
   3:     0.12500000    0.37500000    0.00000000          2/16
   4:     0.37500000   -0.37500000    0.00000000          2/16
   5:     0.37500000   -0.12500000    0.00000000          2/16
   6:     0.37500000    0.12500000    0.00000000          2/16
   7:     0.37500000    0.37500000    0.00000000          2/16

Wave functions: LCAO
  Diagonalizer: Serial LAPACK
  Atomic Correction: dense with blas
  Data-type: complex
 

Occupation numbers: Fermi-Dirac:
  width: 0.1000  # eV
 

Eigensolver
   LCAO using direct dense diagonalizer 

Densities:
  Coarse grid: 36*36*128 grid
  Fine grid: 72*72*256 grid
  Total Charge: 0.000000 

Density mixing:
  Method: separate
  Backend: pulay
  Linear mixing parameter: 0.05
  old densities: 5
  Damping of long wavelength oscillations: 50 

Hamiltonian:
  XC and Coulomb potentials evaluated on a 72*72*256 grid
  Using the LDA Exchange-Correlation functional
  Interpolation: tri-quintic (5. degree polynomial)
  Poisson solver: FastPoissonSolver using
    Stencil: 6*3+1=19 point O(h^6) finite-difference Laplacian
    FFT axes: [np.int64(0), np.int64(1), np.int64(2)]
    FST axes: []
 

Memory estimate:
  Process memory now: 4595.48 MiB
  Calculator: 1074.76 MiB
    Density: 233.23 MiB
      Arrays: 32.91 MiB
      Localized functions: 187.67 MiB
      Mixer: 12.66 MiB
    Hamiltonian: 35.30 MiB
      Arrays: 21.52 MiB
      XC: 0.00 MiB
      Poisson: 0.00 MiB
      vbar: 13.79 MiB
    Wavefunctions: 806.23 MiB
      C [qnM]: 71.75 MiB
      S, T [2 x qmm]: 422.17 MiB
      P [aqMi]: 8.88 MiB
      BasisFunctions: 303.42 MiB
      Eigensolver: 0.00 MiB

Total number of cores used: 1

Number of atoms: 51
Number of atomic orbitals: 1315
Number of bands in calculation: 447
Number of valence electrons: 737
Bands to converge: occupied

... initialized

Initializing position-dependent things.

Density initialized from atomic densities
      .-----------------.  
     /|                 |  
    / |                 |  
   /  |                 |  
  /   |                 |  
 *    |                 |  
 |    |                 |  
 |    |                 |  
 |    |                 |  
 |    |    H            |  
 |    | Pt    Pt        |  
 |    |   Mo        Mo  |  
 |    |                 |  
 |    |Mo C      Mo C   |  
 |  Mo|       Mo        |  
 |    |                 |  
 |    |C         C      |  
 Mo Ni|   NMo   Ni      |  
 | Ni | NNi   NNi   Ni  |  
 |    |                 |  
 Ni   NNi   NNi   Ni    |  
 |  NNi   NNi   NNi     |  
 | Ni | NNi   NNi   Ni  |  
 |    |                 |  
 Ni   NNi   NNi   Ni    |  
 |   Ni    Ni    Ni     |  
 |    |                 |  
 |    |                 |  
 |    |                 |  
 |    |                 |  
 |    |                 |  
 |    .-----------------.  
 |   /                 /   
 |  /                 /    
 | /                 /     
 |/                 /      
 *-----------------*       

Atomic positions and initial magnetic moments

Positions:
   0 Ni     1.244508    1.244508    8.000000    ( 0.0000,  0.0000,  0.0000)
   1 Ni     3.733524    1.244508    8.000000    ( 0.0000,  0.0000,  0.0000)
   2 Ni     6.222540    1.244508    8.000000    ( 0.0000,  0.0000,  0.0000)
   3 Ni     1.244508    3.733524    8.000000    ( 0.0000,  0.0000,  0.0000)
   4 Ni     3.733524    3.733524    8.000000    ( 0.0000,  0.0000,  0.0000)
   5 Ni     6.222540    3.733524    8.000000    ( 0.0000,  0.0000,  0.0000)
   6 Ni     1.244508    6.222540    8.000000    ( 0.0000,  0.0000,  0.0000)
   7 Ni     3.733524    6.222540    8.000000    ( 0.0000,  0.0000,  0.0000)
   8 Ni     6.222540    6.222540    8.000000    ( 0.0000,  0.0000,  0.0000)
   9 Ni     0.000000    0.000000    9.760000    ( 0.0000,  0.0000,  0.0000)
  10 Ni     2.489016    0.000000    9.760000    ( 0.0000,  0.0000,  0.0000)
  11 Ni     4.978032    0.000000    9.760000    ( 0.0000,  0.0000,  0.0000)
  12 Ni     0.000000    2.489016    9.760000    ( 0.0000,  0.0000,  0.0000)
  13 Ni     2.489016    2.489016    9.760000    ( 0.0000,  0.0000,  0.0000)
  14 Ni     4.978032    2.489016    9.760000    ( 0.0000,  0.0000,  0.0000)
  15 Ni     0.000000    4.978032    9.760000    ( 0.0000,  0.0000,  0.0000)
  16 Ni     2.489016    4.978032    9.760000    ( 0.0000,  0.0000,  0.0000)
  17 Ni     4.978032    4.978032    9.760000    ( 0.0000,  0.0000,  0.0000)
  18 Ni     1.244508    1.244508   11.520000    ( 0.0000,  0.0000,  0.0000)
  19 Ni     3.733524    1.244508   11.520000    ( 0.0000,  0.0000,  0.0000)
  20 Ni     6.222540    1.244508   11.520000    ( 0.0000,  0.0000,  0.0000)
  21 Ni     1.244508    3.733524   11.520000    ( 0.0000,  0.0000,  0.0000)
  22 Ni     3.733524    3.733524   11.520000    ( 0.0000,  0.0000,  0.0000)
  23 Ni     6.222540    3.733524   11.520000    ( 0.0000,  0.0000,  0.0000)
  24 Ni     1.244508    6.222540   11.520000    ( 0.0000,  0.0000,  0.0000)
  25 Ni     3.733524    6.222540   11.520000    ( 0.0000,  0.0000,  0.0000)
  26 Ni     6.222540    6.222540   11.520000    ( 0.0000,  0.0000,  0.0000)
  27 Ni     0.000000    0.000000   13.280000    ( 0.0000,  0.0000,  0.0000)
  28 Ni     2.489016    0.000000   13.280000    ( 0.0000,  0.0000,  0.0000)
  29 Ni     4.978032    0.000000   13.280000    ( 0.0000,  0.0000,  0.0000)
  30 Ni     0.000000    2.489016   13.280000    ( 0.0000,  0.0000,  0.0000)
  31 Ni     2.489016    2.489016   13.280000    ( 0.0000,  0.0000,  0.0000)
  32 Ni     4.978032    2.489016   13.280000    ( 0.0000,  0.0000,  0.0000)
  33 Ni     0.000000    4.978032   13.280000    ( 0.0000,  0.0000,  0.0000)
  34 Ni     2.489016    4.978032   13.280000    ( 0.0000,  0.0000,  0.0000)
  35 Ni     4.978032    4.978032   13.280000    ( 0.0000,  0.0000,  0.0000)
  36 Mo     0.000000    0.000000   15.480000    ( 0.0000,  0.0000,  0.0000)
  37 Mo     2.060000    2.060000   17.540000    ( 0.0000,  0.0000,  0.0000)
  38 C      2.060000    2.060000   15.480000    ( 0.0000,  0.0000,  0.0000)
  39 Mo     0.000000    4.120000   15.480000    ( 0.0000,  0.0000,  0.0000)
  40 Mo     2.060000    6.180000   17.540000    ( 0.0000,  0.0000,  0.0000)
  41 C      2.060000    6.180000   15.480000    ( 0.0000,  0.0000,  0.0000)
  42 Mo     4.120000    0.000000   15.480000    ( 0.0000,  0.0000,  0.0000)
  43 Mo     6.180000    2.060000   17.540000    ( 0.0000,  0.0000,  0.0000)
  44 C      6.180000    2.060000   15.480000    ( 0.0000,  0.0000,  0.0000)
  45 Mo     4.120000    4.120000   15.480000    ( 0.0000,  0.0000,  0.0000)
  46 Mo     6.180000    6.180000   17.540000    ( 0.0000,  0.0000,  0.0000)
  47 C      6.180000    6.180000   15.480000    ( 0.0000,  0.0000,  0.0000)
  48 Pt     1.991786    3.191786   19.340000    ( 0.0000,  0.0000,  0.0000)
  49 Pt     4.391786    3.191786   19.340000    ( 0.0000,  0.0000,  0.0000)
  50 H      3.191786    3.191786   20.840000    ( 0.0000,  0.0000,  0.0000)

Unit cell:
           periodic     x           y           z      points  spacing
  1. axis:    yes    7.467048    0.000000    0.000000    36     0.2074
  2. axis:    yes    0.000000    7.467048    0.000000    36     0.2074
  3. axis:    yes    0.000000    0.000000   25.540000   128     0.1995

  Lengths:   7.467048   7.467048  25.540000
  Angles:   90.000000  90.000000  90.000000

Effective grid spacing dv^(1/3) = 0.2048

     iter     time        total  log10-change:
                         energy   eigst   dens
iter:   1 18:20:52 -1193.774642        c
iter:   2 18:22:25 -4045.939930        c -0.90
iter:   3 18:24:02  -719.897259        c -0.43
iter:   4 18:25:35  -482.247981        c -1.11
iter:   5 18:27:07  -414.863079        c -1.36
iter:   6 18:28:42  -444.608394        c -1.49
iter:   7 18:30:20  -465.740456        c -1.33
iter:   8 18:31:54  -493.807812        c -1.45
iter:   9 18:33:26  -508.195770        c -1.39
iter:  10 18:34:58  -496.643368        c -1.38
iter:  11 18:36:29  -484.366867        c -1.44
iter:  12 18:38:01  -647.129202        c -1.47
iter:  13 18:39:35  -438.937559        c -1.02
iter:  14 18:41:10  -421.862265        c -1.61
iter:  15 18:42:48  -416.841512        c -1.69
iter:  16 18:44:24  -426.997400        c -1.68
iter:  17 18:45:57  -431.346520        c -1.67
iter:  18 18:47:29  -537.006821        c -1.60
iter:  19 18:49:00  -420.601905        c -1.14
iter:  20 18:50:37  -420.333456        c -1.72
iter:  21 18:52:09  -398.147335        c -1.67
iter:  22 18:53:41  -392.136578        c -1.87
iter:  23 18:55:14  -396.407154        c -1.98
iter:  24 18:56:46  -394.135268        c -1.89
iter:  25 18:58:21  -400.215709        c -1.97
iter:  26 18:59:53  -403.535323        c -1.85
iter:  27 19:01:27  -406.364549        c -1.83
iter:  28 19:03:02  -407.684315        c -1.81
iter:  29 19:04:36  -416.002741        c -1.82
iter:  30 19:06:09  -399.857775        c -1.65
iter:  31 19:07:43  -400.531623        c -1.94
iter:  32 19:09:19  -399.997119        c -1.88
iter:  33 19:10:53  -398.244873        c -1.90
iter:  34 19:12:24  -398.313173        c -1.94
iter:  35 19:13:56  -487.773503        c -1.91
iter:  36 19:15:32  -396.942467        c -1.30
iter:  37 19:17:04  -399.780540        c -1.92
iter:  38 19:18:36  -399.522408        c -1.87
iter:  39 19:20:08  -399.208289        c -1.83
iter:  40 19:21:42  -397.381286        c -1.86
iter:  41 19:23:14  -427.437510        c -1.90
iter:  42 19:24:46  -399.878804        c -1.47
iter:  43 19:26:18  -398.453753        c -1.89
iter:  44 19:27:55  -397.063578        c -1.92
iter:  45 19:29:30  -396.337173        c -1.94
iter:  46 19:31:02  -395.639084        c -1.97
iter:  47 19:32:34  -431.000305        c -2.00
iter:  48 19:34:08  -394.812437        c -1.43
iter:  49 19:35:42  -394.320374        c -2.00
iter:  50 19:37:14  -393.083840        c -2.06
iter:  51 19:38:48  -393.513243        c -2.09
iter:  52 19:40:20  -391.242979        c -2.05
iter:  53 19:41:57  -392.900403        c -2.26
iter:  54 19:43:30  -393.106770        c -2.00
iter:  55 19:45:02  -390.632657        c -2.18
iter:  56 19:46:37  -390.156814        c -2.41
iter:  57 19:48:09  -390.290098        c -2.55
iter:  58 19:49:41  -390.449257        c -2.47
iter:  59 19:51:13  -389.770988        c -2.50
iter:  60 19:52:45  -389.814740        c -2.87
iter:  61 19:54:16  -389.767835        c -2.66
iter:  62 19:55:49  -389.763710        c -2.94
iter:  63 19:57:21  -389.742529        c -2.95
iter:  64 19:58:56  -389.811190        c -3.03
iter:  65 20:00:32  -389.788455        c -2.93
iter:  66 20:02:06  -389.737075        c -2.83
iter:  67 20:03:40  -389.706789        c -3.12
iter:  68 20:05:19  -389.711679        c -3.05
iter:  69 20:06:51  -389.711469c       c -3.19
iter:  70 20:08:23  -389.721122        c -3.14
iter:  71 20:09:58  -389.814017        c -2.96
iter:  72 20:11:32  -389.707481        c -2.84
iter:  73 20:13:03  -389.757660        c -3.16
iter:  74 20:14:39  -389.714396        c -3.01
iter:  75 20:16:12  -389.709579        c -3.30
iter:  76 20:17:44  -389.710084c       c -3.39
iter:  77 20:19:16  -389.705546c       c -3.41
iter:  78 20:20:48  -389.708983c       c -3.30
iter:  79 20:22:22  -389.747703        c -3.37
iter:  80 20:23:55  -389.709702        c -3.12
iter:  81 20:25:37  -389.709189        c -3.30
iter:  82 20:27:16  -389.703215c       c -3.33
iter:  83 20:28:57  -389.721704        c -3.40
iter:  84 20:30:40  -389.706520        c -3.30
iter:  85 20:32:20  -389.704443        c -3.59
iter:  86 20:34:04  -389.705654c       c -3.46
iter:  87 20:35:49  -389.703910c       c -3.57
iter:  88 20:37:28  -389.705695c       c -3.51
iter:  89 20:39:09  -389.706699c       c -3.54
iter:  90 20:40:55  -389.707150c       c -3.65
iter:  91 20:42:42  -389.724047        c -3.56
iter:  92 20:44:21  -389.700979        c -3.34
iter:  93 20:46:01  -389.704832        c -3.54
iter:  94 20:47:39  -389.705614c       c -3.65
iter:  95 20:49:21  -389.703109c       c -3.81
iter:  96 20:51:07  -389.708391c       c -3.66
iter:  97 20:52:50  -389.702791c       c -3.75
iter:  98 20:54:31  -389.712621        c -3.81
iter:  99 20:56:14  -389.710766        c -3.57
iter: 100 20:57:56  -389.703728        c -3.68
iter: 101 20:59:48  -389.707596c       c -3.91
iter: 102 21:01:28  -389.703213c       c -3.92
iter: 103 21:03:10  -389.705057c       c -3.89
iter: 104 21:04:53  -389.705341c       c -4.09c

Converged after 104 iterations.

Dipole moment: (-7.877817, -7.369813, 0.151221) |e|*Ang

Energy contributions relative to reference atoms: (reference = -3371260.792463)

Kinetic:        +35.058411
Potential:      -29.037564
External:        +0.000000
XC:            -392.618401
Entropy (-ST):   -3.762017
Local:           -1.226778
SIC:             +0.000000
--------------------------
Free energy:   -391.586349
Extrapolated:  -389.705341

Showing only first 2 kpts
 Kpt  Band  Eigenvalues  Occupancy
  0   366      0.77460    1.23931
  0   367      0.78609    1.18445
  0   368      0.81035    1.06523
  0   369      0.81958    1.01913

  1   366      0.75810    1.31543
  1   367      0.76399    1.28868
  1   368      0.77786    1.22388
  1   369      0.79323    1.14979


Fermi level: 0.82341

No gap
No difference between direct/indirect transitions
Timing:                              incl.     excl.
-----------------------------------------------------------
Basic WFS set positions:             0.000     0.000   0.0% |
Basis functions set positions:       0.184     0.184   0.0% |
LCAO WFS Initialize:                 0.420     0.096   0.0% |
 Hamiltonian:                        0.324     0.000   0.0% |
  Atomic:                            0.163     0.002   0.0% |
   XC Correction:                    0.161     0.161   0.0% |
  Calculate atomic Hamiltonians:     0.026     0.026   0.0% |
  Communicate:                       0.000     0.000   0.0% |
  Hartree integrate/restrict:        0.006     0.006   0.0% |
  Initialize Hamiltonian:            0.000     0.000   0.0% |
  Poisson:                           0.079     0.006   0.0% |
   Communicate from 1D:              0.008     0.008   0.0% |
   Communicate from 2D:              0.006     0.006   0.0% |
   Communicate to 1D:                0.011     0.011   0.0% |
   Communicate to 2D:                0.011     0.011   0.0% |
   FFT 1D:                           0.007     0.007   0.0% |
   FFT 2D:                           0.030     0.030   0.0% |
  XC 3D grid:                        0.046     0.046   0.0% |
  vbar:                              0.003     0.003   0.0% |
P tci:                               5.315     5.315   0.1% |
SCF-cycle:                        9860.637     0.290   0.0% |
 Density:                         7587.139     0.002   0.0% |
  Atomic density matrices:           2.104     2.104   0.0% |
  Mix:                              11.552    11.552   0.1% |
  Multipole moments:                 0.030     0.030   0.0% |
  Normalize:                         0.014     0.014   0.0% |
  Pseudo density:                 7573.437     0.042   0.0% |
   Calculate density matrix:        17.447    17.447   0.2% |
   Construct density:             7555.947  7555.947  76.5% |------------------------------|
   Symmetrize density:               0.002     0.002   0.0% |
 Hamiltonian:                       34.824     0.004   0.0% |
  Atomic:                           16.869     0.187   0.0% |
   XC Correction:                   16.682    16.682   0.2% |
  Calculate atomic Hamiltonians:     2.705     2.705   0.0% |
  Communicate:                       0.000     0.000   0.0% |
  Hartree integrate/restrict:        0.676     0.676   0.0% |
  Poisson:                           7.309     0.614   0.0% |
   Communicate from 1D:              0.806     0.806   0.0% |
   Communicate from 2D:              0.624     0.624   0.0% |
   Communicate to 1D:                0.735     0.735   0.0% |
   Communicate to 2D:                0.980     0.980   0.0% |
   FFT 1D:                           0.800     0.800   0.0% |
   FFT 2D:                           2.751     2.751   0.0% |
  XC 3D grid:                        6.244     6.244   0.1% |
  vbar:                              1.016     1.016   0.0% |
 LCAO eigensolver:                2238.384     3.283   0.0% |
  Calculate projections:            92.732    92.732   0.9% |
  DenseAtomicCorrection:           335.756   335.756   3.4% ||
  Distribute overlap matrix:         7.094     7.094   0.1% |
  Orbital Layouts:                 497.034   497.034   5.0% |-|
  Potential matrix:               1166.034  1166.034  11.8% |----|
  Sum over cells:                  136.450   136.450   1.4% ||
ST tci:                              2.038     2.038   0.0% |
Set symmetry:                        0.000     0.000   0.0% |
TCI: Evaluate splines:               0.669     0.669   0.0% |
mktci:                               0.026     0.026   0.0% |
Other:                               4.357     4.357   0.0% |
-----------------------------------------------------------
Total:                                      9873.647 100.0%

Memory usage: 4.49 GiB
Date: Sun Feb 22 21:04:53 2026
