
  ___ ___ ___ _ _ _  
 |   |   |_  | | | | 
 | | | | | . | | | | 
 |__ |  _|___|_____|  25.7.0
 |___|_|             

User:   mikei@Z790-AORUS-ELITE-AX
Date:   Sat Feb 21 04:52:12 2026
Arch:   x86_64
Pid:    89048
CWD:    /home/mikei/Dokumenty/code/cemea/ocx
Python: 3.10.16
gpaw:   /home/mikei/.pyenv/versions/cemea-env/lib/python3.10/site-packages/gpaw
_gpaw:  /home/mikei/.pyenv/versions/cemea-env/lib/python3.10/site-packages/
        _gpaw.cpython-310-x86_64-linux-gnu.so
ase:    /home/mikei/.pyenv/versions/cemea-env/lib/python3.10/site-packages/ase (version 3.27.0)
numpy:  /home/mikei/.pyenv/versions/cemea-env/lib/python3.10/site-packages/numpy (version 2.2.6)
scipy:  /home/mikei/.pyenv/versions/cemea-env/lib/python3.10/site-packages/scipy (version 1.15.3)
libxc:  2.x.y
units:  Angstrom and eV
cores: 1
OpenMP: False
OMP_NUM_THREADS: 1

Input parameters:
  basis: dzp
  convergence: {density: 0.0001,
                eigenstates: 1e-05,
                energy: 1e-05}
  kpts: [4 4 1]
  mode: lcao

System changes: positions, numbers, cell, pbc, initial_charges, initial_magmoms 

Initialize ...

species:
  Mo:
    name: Molybdenum
    id: ac24daaf086600a00ce6d19a74574df1
    Z: 42.0
    valence: 14
    core: 28
    charge: 0.0
    file: /home/mikei/.pyenv/versions/cemea-env/lib/python3.10/site-packages/gpaw_data/setups/Mo.LDA.gz
    compensation charges: {type: gauss,
                           rc: 0.38,
                           lmax: 2}
    cutoffs: {filter: 2.16,
              core: 1.42}
    projectors:
      #              energy  rcut
      - 4s(2.00)   -64.384   1.238
      - 5s(1.00)    -4.319   1.238
      - 4p(6.00)   -38.595   1.296
      - 5p(0.00)    -1.161   1.296
      - 4d(5.00)    -3.933   1.296
      -  d          23.278   1.296
  
    # LCAO basis set for Mo:
    #   Name: dzp
    #   File: /home/mikei/.pyenv/versions/cemea-env/lib/python3.10/site-packages/gpaw_data/setups/Mo.dzp.basis.gz
    #   Number of radial functions: 11
    #   Number of spherical harmonics: 29
    #     l=0, rc=3.5469 Bohr: 4s-sz confined orbital
    #     l=0, rc=10.0469 Bohr: 5s-sz confined orbital
    #     l=1, rc=4.0781 Bohr: 4p-sz confined orbital
    #     l=1, rc=14.0938 Bohr: 5p-sz confined orbital
    #     l=2, rc=7.2031 Bohr: 4d-sz confined orbital
    #     l=0, rc=2.1250 Bohr: 4s-dz split-valence wave
    #     l=0, rc=6.1250 Bohr: 5s-dz split-valence wave
    #     l=1, rc=2.5469 Bohr: 4p-dz split-valence wave
    #     l=1, rc=8.7656 Bohr: 5p-dz split-valence wave
    #     l=2, rc=4.2344 Bohr: 4d-dz split-valence wave
    #     l=1, rc=10.0469 Bohr: p-type Gaussian polarization
    #   Number of RI-basis functions 0

  C:
    name: Carbon
    id: d60576a1f549371a163e72552ca58787
    Z: 6.0
    valence: 4
    core: 2
    charge: 0.0
    file: /home/mikei/.pyenv/versions/cemea-env/lib/python3.10/site-packages/gpaw_data/setups/C.LDA.gz
    compensation charges: {type: gauss,
                           rc: 0.20,
                           lmax: 2}
    cutoffs: {filter: 1.14,
              core: 1.14}
    projectors:
      #              energy  rcut
      - 2s(2.00)   -13.639   0.635
      - 2p(2.00)    -5.414   0.635
      -  s          13.573   0.635
      -  p          21.797   0.635
      -  d           0.000   0.635
  
    # LCAO basis set for C:
    #   Name: dzp
    #   File: /home/mikei/.pyenv/versions/cemea-env/lib/python3.10/site-packages/gpaw_data/setups/C.dzp.basis.gz
    #   Number of radial functions: 5
    #   Number of spherical harmonics: 13
    #     l=0, rc=5.5469 Bohr: 2s-sz confined orbital
    #     l=1, rc=6.6719 Bohr: 2p-sz confined orbital
    #     l=0, rc=3.0312 Bohr: 2s-dz split-valence wave
    #     l=1, rc=3.7500 Bohr: 2p-dz split-valence wave
    #     l=2, rc=6.6719 Bohr: d-type Gaussian polarization
    #   Number of RI-basis functions 0

Reference energy: -6631752.858390  # eV

Spin-paired calculation

Convergence criteria:
 Maximum [total energy] change in last 3 cyles: 1e-05 eV / valence electron
 Maximum integral of absolute [dens]ity change: 0.0001 electrons / valence electron
 Maximum integral of absolute [eigenst]ate change: 1e-05 eV^2 / valence electron
 Maximum number of scf [iter]ations: 333
 (Square brackets indicate name in SCF output, whereas a 'c' in
 the SCF output indicates the quantity has converged.)

Symmetries present (total): 2

  ( 1  0  0)  ( 1  0  0)
  ( 0  1  0)  ( 0 -1  0)
  ( 0  0  1)  ( 0  0  1)

16 k-points: 4 x 4 x 1 Monkhorst-Pack grid
4 k-points in the irreducible part of the Brillouin zone
       k-points in crystal coordinates                weights
   0:     0.12500000    0.12500000    0.00000000          4/16
   1:     0.12500000    0.37500000    0.00000000          4/16
   2:     0.37500000    0.12500000    0.00000000          4/16
   3:     0.37500000    0.37500000    0.00000000          4/16

Wave functions: LCAO
  Diagonalizer: Serial LAPACK
  Atomic Correction: dense with blas
  Data-type: complex
 

Occupation numbers: Fermi-Dirac:
  width: 0.1000  # eV
 

Eigensolver
   LCAO using direct dense diagonalizer 

Densities:
  Coarse grid: 276*60*92 grid
  Fine grid: 552*120*184 grid
  Total Charge: 0.000000 

Density mixing:
  Method: separate
  Backend: pulay
  Linear mixing parameter: 0.05
  old densities: 5
  Damping of long wavelength oscillations: 50 

Hamiltonian:
  XC and Coulomb potentials evaluated on a 552*120*184 grid
  Using the LDA Exchange-Correlation functional
  Interpolation: tri-quintic (5. degree polynomial)
  Poisson solver: FastPoissonSolver using
    Stencil: 6*3+1=19 point O(h^6) finite-difference Laplacian
    FFT axes: [np.int64(0), np.int64(1), np.int64(2)]
    FST axes: []
 

Memory estimate:
  Process memory now: 4595.48 MiB
  Calculator: 2249.11 MiB
    Density: 734.73 MiB
      Arrays: 302.21 MiB
      Localized functions: 316.29 MiB
      Mixer: 116.24 MiB
    Hamiltonian: 218.08 MiB
      Arrays: 197.60 MiB
      XC: 0.00 MiB
      Poisson: 0.00 MiB
      vbar: 20.48 MiB
    Wavefunctions: 1296.30 MiB
      C [qnM]: 75.40 MiB
      S, T [2 x qmm]: 553.82 MiB
      P [aqMi]: 11.94 MiB
      BasisFunctions: 655.13 MiB
      Eigensolver: 0.00 MiB

Total number of cores used: 1

Number of atoms: 90
Number of atomic orbitals: 2130
Number of bands in calculation: 580
Number of valence electrons: 960
Bands to converge: occupied

... initialized

Initializing position-dependent things.

Density initialized from atomic densities
         .--------------------------------------------------------------------------------------------------------------------------------------.  
        /|                                                                                                                                      |  
       / |                                                                                                                                      |  
      /  |                                                                                                                                      |  
     /   |                                                                                                                                      |  
    /    |                                                                                                                                      |  
   /     |                                                                                                                                      |  
  /      |                                                                                                                                      |  
 *       |                                                                                                                                      |  
 |       |                                                                                                                                      |  
 |       |                                                                                                                                      |  
 |       |                      Mo        Mo        Mo         Mo        Mo        Mo        Mo        Mo        Mo        Mo                   |  
 |       |                                                                                                                                      |  
 |       |                                                                                                                                      |  
 |       |                    MoC       MoC       MoC       Mo C      Mo C      Mo C      Mo C      Mo C      Mo C      Mo C                    |  
 |       |                Mo        Mo        Mo        Mo        Mo        Mo        Mo         Mo        Mo        Mo                         |  
 |       |                 Mo C      Mo C      Mo C      Mo C      Mo C      Mo C      Mo C       MoC       MoC       MoC                       |  
 |       |                                                                                                                                      |  
 |       |             Mo        Mo        Mo         Mo        Mo        Mo        Mo        Mo        Mo        Mo                            |  
 |       |                 C         C         C         C         C         C         C          C         C         C                         |  
 |       |           Mo        Mo        Mo        Mo        Mo        Mo        Mo        Mo        Mo        Mo                               |  
 |       |                                                                                                                                      |  
 |       .--------------------------------------------------------------------------------------------------------------------------------------.  
 |      /                                                                                                                                      /   
 |     /                                                                                                                                      /    
 |    /                                                                                                                                      /     
 |   /                                                                                                                                      /      
 |  /                                                                                                                                      /       
 | /                                                                                                                                      /        
 |/                                                                                                                                      /         
 *--------------------------------------------------------------------------------------------------------------------------------------*          

Atomic positions and initial magnetic moments

Positions:
   0 Mo     8.000000    0.000000    8.000000    ( 0.0000,  0.0000,  0.0000)
   1 Mo    10.060000    2.060000   10.060000    ( 0.0000,  0.0000,  0.0000)
   2 C     10.060000    2.060000    8.000000    ( 0.0000,  0.0000,  0.0000)
   3 Mo     8.000000    4.120000    8.000000    ( 0.0000,  0.0000,  0.0000)
   4 Mo    10.060000    6.180000   10.060000    ( 0.0000,  0.0000,  0.0000)
   5 C     10.060000    6.180000    8.000000    ( 0.0000,  0.0000,  0.0000)
   6 Mo     8.000000    8.240000    8.000000    ( 0.0000,  0.0000,  0.0000)
   7 Mo    10.060000   10.300000   10.060000    ( 0.0000,  0.0000,  0.0000)
   8 C     10.060000   10.300000    8.000000    ( 0.0000,  0.0000,  0.0000)
   9 Mo    12.120000    0.000000    8.000000    ( 0.0000,  0.0000,  0.0000)
  10 Mo    14.180000    2.060000   10.060000    ( 0.0000,  0.0000,  0.0000)
  11 C     14.180000    2.060000    8.000000    ( 0.0000,  0.0000,  0.0000)
  12 Mo    12.120000    4.120000    8.000000    ( 0.0000,  0.0000,  0.0000)
  13 Mo    14.180000    6.180000   10.060000    ( 0.0000,  0.0000,  0.0000)
  14 C     14.180000    6.180000    8.000000    ( 0.0000,  0.0000,  0.0000)
  15 Mo    12.120000    8.240000    8.000000    ( 0.0000,  0.0000,  0.0000)
  16 Mo    14.180000   10.300000   10.060000    ( 0.0000,  0.0000,  0.0000)
  17 C     14.180000   10.300000    8.000000    ( 0.0000,  0.0000,  0.0000)
  18 Mo    16.240000    0.000000    8.000000    ( 0.0000,  0.0000,  0.0000)
  19 Mo    18.300000    2.060000   10.060000    ( 0.0000,  0.0000,  0.0000)
  20 C     18.300000    2.060000    8.000000    ( 0.0000,  0.0000,  0.0000)
  21 Mo    16.240000    4.120000    8.000000    ( 0.0000,  0.0000,  0.0000)
  22 Mo    18.300000    6.180000   10.060000    ( 0.0000,  0.0000,  0.0000)
  23 C     18.300000    6.180000    8.000000    ( 0.0000,  0.0000,  0.0000)
  24 Mo    16.240000    8.240000    8.000000    ( 0.0000,  0.0000,  0.0000)
  25 Mo    18.300000   10.300000   10.060000    ( 0.0000,  0.0000,  0.0000)
  26 C     18.300000   10.300000    8.000000    ( 0.0000,  0.0000,  0.0000)
  27 Mo    20.360000    0.000000    8.000000    ( 0.0000,  0.0000,  0.0000)
  28 Mo    22.420000    2.060000   10.060000    ( 0.0000,  0.0000,  0.0000)
  29 C     22.420000    2.060000    8.000000    ( 0.0000,  0.0000,  0.0000)
  30 Mo    20.360000    4.120000    8.000000    ( 0.0000,  0.0000,  0.0000)
  31 Mo    22.420000    6.180000   10.060000    ( 0.0000,  0.0000,  0.0000)
  32 C     22.420000    6.180000    8.000000    ( 0.0000,  0.0000,  0.0000)
  33 Mo    20.360000    8.240000    8.000000    ( 0.0000,  0.0000,  0.0000)
  34 Mo    22.420000   10.300000   10.060000    ( 0.0000,  0.0000,  0.0000)
  35 C     22.420000   10.300000    8.000000    ( 0.0000,  0.0000,  0.0000)
  36 Mo    24.480000    0.000000    8.000000    ( 0.0000,  0.0000,  0.0000)
  37 Mo    26.540000    2.060000   10.060000    ( 0.0000,  0.0000,  0.0000)
  38 C     26.540000    2.060000    8.000000    ( 0.0000,  0.0000,  0.0000)
  39 Mo    24.480000    4.120000    8.000000    ( 0.0000,  0.0000,  0.0000)
  40 Mo    26.540000    6.180000   10.060000    ( 0.0000,  0.0000,  0.0000)
  41 C     26.540000    6.180000    8.000000    ( 0.0000,  0.0000,  0.0000)
  42 Mo    24.480000    8.240000    8.000000    ( 0.0000,  0.0000,  0.0000)
  43 Mo    26.540000   10.300000   10.060000    ( 0.0000,  0.0000,  0.0000)
  44 C     26.540000   10.300000    8.000000    ( 0.0000,  0.0000,  0.0000)
  45 Mo    28.600000    0.000000    8.000000    ( 0.0000,  0.0000,  0.0000)
  46 Mo    30.660000    2.060000   10.060000    ( 0.0000,  0.0000,  0.0000)
  47 C     30.660000    2.060000    8.000000    ( 0.0000,  0.0000,  0.0000)
  48 Mo    28.600000    4.120000    8.000000    ( 0.0000,  0.0000,  0.0000)
  49 Mo    30.660000    6.180000   10.060000    ( 0.0000,  0.0000,  0.0000)
  50 C     30.660000    6.180000    8.000000    ( 0.0000,  0.0000,  0.0000)
  51 Mo    28.600000    8.240000    8.000000    ( 0.0000,  0.0000,  0.0000)
  52 Mo    30.660000   10.300000   10.060000    ( 0.0000,  0.0000,  0.0000)
  53 C     30.660000   10.300000    8.000000    ( 0.0000,  0.0000,  0.0000)
  54 Mo    32.720000    0.000000    8.000000    ( 0.0000,  0.0000,  0.0000)
  55 Mo    34.780000    2.060000   10.060000    ( 0.0000,  0.0000,  0.0000)
  56 C     34.780000    2.060000    8.000000    ( 0.0000,  0.0000,  0.0000)
  57 Mo    32.720000    4.120000    8.000000    ( 0.0000,  0.0000,  0.0000)
  58 Mo    34.780000    6.180000   10.060000    ( 0.0000,  0.0000,  0.0000)
  59 C     34.780000    6.180000    8.000000    ( 0.0000,  0.0000,  0.0000)
  60 Mo    32.720000    8.240000    8.000000    ( 0.0000,  0.0000,  0.0000)
  61 Mo    34.780000   10.300000   10.060000    ( 0.0000,  0.0000,  0.0000)
  62 C     34.780000   10.300000    8.000000    ( 0.0000,  0.0000,  0.0000)
  63 Mo    36.840000    0.000000    8.000000    ( 0.0000,  0.0000,  0.0000)
  64 Mo    38.900000    2.060000   10.060000    ( 0.0000,  0.0000,  0.0000)
  65 C     38.900000    2.060000    8.000000    ( 0.0000,  0.0000,  0.0000)
  66 Mo    36.840000    4.120000    8.000000    ( 0.0000,  0.0000,  0.0000)
  67 Mo    38.900000    6.180000   10.060000    ( 0.0000,  0.0000,  0.0000)
  68 C     38.900000    6.180000    8.000000    ( 0.0000,  0.0000,  0.0000)
  69 Mo    36.840000    8.240000    8.000000    ( 0.0000,  0.0000,  0.0000)
  70 Mo    38.900000   10.300000   10.060000    ( 0.0000,  0.0000,  0.0000)
  71 C     38.900000   10.300000    8.000000    ( 0.0000,  0.0000,  0.0000)
  72 Mo    40.960000    0.000000    8.000000    ( 0.0000,  0.0000,  0.0000)
  73 Mo    43.020000    2.060000   10.060000    ( 0.0000,  0.0000,  0.0000)
  74 C     43.020000    2.060000    8.000000    ( 0.0000,  0.0000,  0.0000)
  75 Mo    40.960000    4.120000    8.000000    ( 0.0000,  0.0000,  0.0000)
  76 Mo    43.020000    6.180000   10.060000    ( 0.0000,  0.0000,  0.0000)
  77 C     43.020000    6.180000    8.000000    ( 0.0000,  0.0000,  0.0000)
  78 Mo    40.960000    8.240000    8.000000    ( 0.0000,  0.0000,  0.0000)
  79 Mo    43.020000   10.300000   10.060000    ( 0.0000,  0.0000,  0.0000)
  80 C     43.020000   10.300000    8.000000    ( 0.0000,  0.0000,  0.0000)
  81 Mo    45.080000    0.000000    8.000000    ( 0.0000,  0.0000,  0.0000)
  82 Mo    47.140000    2.060000   10.060000    ( 0.0000,  0.0000,  0.0000)
  83 C     47.140000    2.060000    8.000000    ( 0.0000,  0.0000,  0.0000)
  84 Mo    45.080000    4.120000    8.000000    ( 0.0000,  0.0000,  0.0000)
  85 Mo    47.140000    6.180000   10.060000    ( 0.0000,  0.0000,  0.0000)
  86 C     47.140000    6.180000    8.000000    ( 0.0000,  0.0000,  0.0000)
  87 Mo    45.080000    8.240000    8.000000    ( 0.0000,  0.0000,  0.0000)
  88 Mo    47.140000   10.300000   10.060000    ( 0.0000,  0.0000,  0.0000)
  89 C     47.140000   10.300000    8.000000    ( 0.0000,  0.0000,  0.0000)

Unit cell:
           periodic     x           y           z      points  spacing
  1. axis:    yes   55.140000    0.000000    0.000000   276     0.1998
  2. axis:    yes    0.000000   12.360000    0.000000    60     0.2060
  3. axis:    yes    0.000000    0.000000   18.060000    92     0.1963

  Lengths:  55.140000  12.360000  18.060000
  Angles:   90.000000  90.000000  90.000000

Effective grid spacing dv^(1/3) = 0.2007

     iter     time        total  log10-change:
                         energy   eigst   dens
iter:   1 04:52:57  -710.581472        c
iter:   2 04:53:47 -1121.260781        c -0.86
iter:   3 04:54:42 -1627.182836        c -0.60
iter:   4 04:55:30  -764.441676        c -0.51
iter:   5 04:56:26  -756.179846        c -0.80
iter:   6 04:57:18  -649.013826        c -0.80
iter:   7 04:58:07  -646.211687        c -0.96
iter:   8 04:58:57 -1208.567153        c -0.97
iter:   9 04:59:46  -751.758984        c -0.56
iter:  10 05:00:34  -625.510576        c -0.80
iter:  11 05:01:26  -615.301696        c -1.05
iter:  12 05:02:14  -700.203051        c -1.09
iter:  13 05:03:05  -631.867321        c -0.87
iter:  14 05:03:53  -725.294204        c -1.00
iter:  15 05:04:45  -629.881717        c -0.85
iter:  16 05:05:39  -604.998394        c -1.04
iter:  17 05:06:28  -598.778029        c -1.13
iter:  18 05:07:22  -597.342003        c -1.20
iter:  19 05:08:11  -598.866937        c -1.20
iter:  20 05:08:59  -724.366270        c -1.18
iter:  21 05:09:48  -665.014027        c -0.85
iter:  22 05:10:40  -610.927040        c -0.93
iter:  23 05:11:36  -599.057080        c -1.10
iter:  24 05:12:27  -591.635790        c -1.22
iter:  25 05:13:20  -586.117423        c -1.27
iter:  26 05:14:11  -625.494426        c -1.39
iter:  27 05:15:00  -688.275194        c -1.01
iter:  28 05:15:51  -607.444712        c -0.88
iter:  29 05:16:43  -587.579997        c -1.11
iter:  30 05:17:31  -590.118707        c -1.37
iter:  31 05:18:27  -585.616927        c -1.33
iter:  32 05:19:22  -594.323862        c -1.40
iter:  33 05:20:12  -626.660983        c -1.22
iter:  34 05:21:04  -587.356029        c -1.04
iter:  35 05:21:53  -587.440116        c -1.34
iter:  36 05:22:44  -592.923920        c -1.37
iter:  37 05:23:35  -583.732108        c -1.29
iter:  38 05:24:23  -581.963918        c -1.48
iter:  39 05:25:14  -587.358205        c -1.57
iter:  40 05:26:09  -645.401189        c -1.40
iter:  41 05:26:59  -586.190128        c -0.98
iter:  42 05:27:50  -591.027572        c -1.41
iter:  43 05:28:41  -589.964530        c -1.30
iter:  44 05:29:30  -581.580703        c -1.30
iter:  45 05:30:19  -581.603701        c -1.60
iter:  46 05:31:08  -627.348415        c -1.61
iter:  47 05:31:58  -581.102720        c -1.04
iter:  48 05:32:46  -608.077570        c -1.63
iter:  49 05:33:36  -591.114047        c -1.12
iter:  50 05:34:29  -580.508820        c -1.31
iter:  51 05:35:25  -580.851509        c -1.71
iter:  52 05:36:14  -595.197207        c -1.67
iter:  53 05:37:05  -584.699118        c -1.24
iter:  54 05:37:56  -597.134164        c -1.45
iter:  55 05:38:47  -590.703229        c -1.20
iter:  56 05:39:35  -580.473503        c -1.34
iter:  57 05:40:30  -584.589520        c -1.72
iter:  58 05:41:18  -592.175547        c -1.49
iter:  59 05:42:11  -605.252387        c -1.28
iter:  60 05:43:04  -614.426469        c -1.14
iter:  61 05:43:52  -590.533513        c -1.07
iter:  62 05:44:44  -584.823213        c -1.36
iter:  63 05:45:35  -605.574091        c -1.48
iter:  64 05:46:27  -601.210889        c -1.22
iter:  65 05:47:17  -639.577640        c -1.19
iter:  66 05:48:12  -625.766061        c -1.00
iter:  67 05:49:00  -619.261081        c -1.02
iter:  68 05:49:48  -593.268245        c -1.17
iter:  69 05:50:39  -645.019568        c -1.30
iter:  70 05:51:31  -615.377033        c -1.02
iter:  71 05:52:25  -700.932587        c -1.12
iter:  72 05:53:20  -682.479598        c -0.89
iter:  73 05:54:13  -618.105650        c -0.89
iter:  74 05:55:05  -600.914381        c -1.14
iter:  75 05:55:55  -635.688593        c -1.17
iter:  76 05:56:44  -614.777053        c -1.04
iter:  77 05:57:33  -699.312587        c -1.11
iter:  78 05:58:24  -627.009777        c -0.87
iter:  79 05:59:12  -616.125894        c -1.00
iter:  80 06:00:03  -605.940578        c -1.10
iter:  81 06:00:54  -629.135362        c -1.14
iter:  82 06:01:42  -610.152682        c -1.06
iter:  83 06:02:32  -825.377717        c -1.13
iter:  84 06:03:23  -646.436656        c -0.76
iter:  85 06:04:12  -614.792842        c -0.96
iter:  86 06:05:03  -608.540637        c -1.08
iter:  87 06:05:54  -638.831851        c -1.13
iter:  88 06:06:46  -614.473961        c -1.02
iter:  89 06:07:42  -804.849822        c -1.11
iter:  90 06:08:31  -636.511224        c -0.77
iter:  91 06:09:23  -624.498966        c -0.99
iter:  92 06:10:22  -622.466222        c -1.05
iter:  93 06:11:15  -635.898015        c -1.08
iter:  94 06:12:11  -605.732316        c -1.02
iter:  95 06:13:00  -773.029612        c -1.16
iter:  96 06:13:56  -687.987035        c -0.80
iter:  97 06:14:47  -619.069834        c -0.90
iter:  98 06:15:41  -624.794294        c -1.07
iter:  99 06:16:31  -640.366163        c -1.09
iter: 100 06:17:28  -600.817251        c -0.99
iter: 101 06:18:22  -717.605781        c -1.19
iter: 102 06:19:16  -671.151264        c -0.84
iter: 103 06:20:12  -629.514041        c -0.92
iter: 104 06:21:02  -641.453428        c -1.03
iter: 105 06:21:50  -633.152269        c -1.05
iter: 106 06:22:41  -595.701538        c -1.01
iter: 107 06:23:32  -699.935038        c -1.24
iter: 108 06:24:24  -706.940997        c -0.86
iter: 109 06:25:12  -618.846690        c -0.86
iter: 110 06:26:02  -648.041756        c -1.07
iter: 111 06:26:51  -632.559163        c -1.03
iter: 112 06:27:39  -594.398537        c -1.02
iter: 113 06:28:30  -672.856877        c -1.27
iter: 114 06:29:21  -692.902009        c -0.89
iter: 115 06:30:10  -627.798726        c -0.88
iter: 116 06:30:58  -655.429253        c -1.03
iter: 117 06:31:49  -633.098507        c -1.01
iter: 118 06:32:38  -592.606364        c -1.02
iter: 119 06:33:26  -672.197412        c -1.30
iter: 120 06:34:17  -708.104045        c -0.90
iter: 121 06:35:08  -625.261633        c -0.86
iter: 122 06:35:58  -659.130298        c -1.04
iter: 123 06:36:48  -633.550549        c -1.00
iter: 124 06:37:37  -592.257969        c -1.02
iter: 125 06:38:30  -663.638786        c -1.32
iter: 126 06:39:18  -701.526887        c -0.91
iter: 127 06:40:11  -628.663798        c -0.86
iter: 128 06:41:01  -660.256505        c -1.03
iter: 129 06:41:49  -635.170418        c -1.00
iter: 130 06:42:44  -591.605611        c -1.02
iter: 131 06:43:32  -662.809286        c -1.34
iter: 132 06:44:29  -704.332770        c -0.91
iter: 133 06:45:24  -627.672768        c -0.86
iter: 134 06:46:15  -661.991983        c -1.04
iter: 135 06:47:06  -635.448647        c -0.99
iter: 136 06:48:02  -591.456862        c -1.02
iter: 137 06:48:51  -660.441920        c -1.35
iter: 138 06:49:44  -701.290928        c -0.91
iter: 139 06:50:35  -628.240708        c -0.86
iter: 140 06:51:23  -662.130931        c -1.03
iter: 141 06:52:14  -636.346291        c -0.99
iter: 142 06:53:03  -591.211438        c -1.02
iter: 143 06:53:51  -660.438740        c -1.36
iter: 144 06:54:40  -699.875743        c -0.91
iter: 145 06:55:28  -627.904815        c -0.87
iter: 146 06:56:21  -663.108880        c -1.03
iter: 147 06:57:12  -636.611687        c -0.99
iter: 148 06:58:00  -591.056409        c -1.02
iter: 149 06:58:48  -660.796202        c -1.36
iter: 150 06:59:38  -697.593083        c -0.91
iter: 151 07:00:29  -627.737358        c -0.87
iter: 152 07:01:21  -663.699535        c -1.04
iter: 153 07:02:09  -636.840715        c -0.99
iter: 154 07:02:59  -590.883323        c -1.02
iter: 155 07:03:51  -662.108376        c -1.37
iter: 156 07:04:41  -695.182257        c -0.91
iter: 157 07:05:32  -627.438773        c -0.87
iter: 158 07:06:21  -664.774750        c -1.04
iter: 159 07:07:11  -636.810299        c -0.98
iter: 160 07:08:02  -590.712982        c -1.02
iter: 161 07:08:50  -664.100724        c -1.37
iter: 162 07:09:38  -692.723337        c -0.91
iter: 163 07:10:29  -627.061585        c -0.88
iter: 164 07:11:16  -666.108732        c -1.04
iter: 165 07:12:05  -636.562237        c -0.98
iter: 166 07:12:56  -590.546194        c -1.03
iter: 167 07:13:48  -666.732785        c -1.37
iter: 168 07:14:44  -690.246902        c -0.90
iter: 169 07:15:35  -626.609435        c -0.88
iter: 170 07:16:23  -667.954705        c -1.04
iter: 171 07:17:11  -636.080446        c -0.98
iter: 172 07:18:02  -590.394144        c -1.03
iter: 173 07:18:54  -669.941374        c -1.38
iter: 174 07:19:42  -688.104219        c -0.90
iter: 175 07:20:30  -626.032966        c -0.88
iter: 176 07:21:18  -670.412565        c -1.04
iter: 177 07:22:18  -635.308849        c -0.97
iter: 178 07:23:08  -590.278507        c -1.03
iter: 179 07:23:58  -673.622230        c -1.38
iter: 180 07:24:46  -686.492566        c -0.89
iter: 181 07:25:38  -625.335468        c -0.89
iter: 182 07:26:27  -673.663311        c -1.05
iter: 183 07:27:19  -634.214717        c -0.96
iter: 184 07:28:09  -590.217805        c -1.04
iter: 185 07:29:01  -677.760723        c -1.38
iter: 186 07:29:48  -685.698971        c -0.89
iter: 187 07:30:40  -624.499602        c -0.89
iter: 188 07:31:30  -677.883640        c -1.05
iter: 189 07:32:21  -632.754385        c -0.95
iter: 190 07:33:09  -590.229169        c -1.05
iter: 191 07:33:57  -682.350559        c -1.38
iter: 192 07:34:54  -685.871385        c -0.88
iter: 193 07:35:43  -623.546618        c -0.89
iter: 194 07:36:31  -683.154392        c -1.05
iter: 195 07:37:22  -630.923781        c -0.93
iter: 196 07:38:15  -590.319606        c -1.06
iter: 197 07:39:04  -687.357826        c -1.37
iter: 198 07:39:55  -686.941480        c -0.87
iter: 199 07:40:44  -622.557677        c -0.89
iter: 200 07:41:35  -689.147284        c -1.05
iter: 201 07:42:24  -628.818332        c -0.92
iter: 202 07:43:13  -590.476935        c -1.07
iter: 203 07:44:03  -692.381792        c -1.37
iter: 204 07:44:51  -688.447117        c -0.87
iter: 205 07:45:43  -621.685182        c -0.88
iter: 206 07:46:35  -694.729276        c -1.06
iter: 207 07:47:26  -626.707447        c -0.91
iter: 208 07:48:16  -590.656756        c -1.07
iter: 209 07:49:09  -696.608012        c -1.37
iter: 210 07:49:59  -689.775021        c -0.86
iter: 211 07:50:49  -621.032359        c -0.88
iter: 212 07:51:44  -698.398744        c -1.06
iter: 213 07:52:37  -624.911051        c -0.90
iter: 214 07:53:26  -590.800927        c -1.08
iter: 215 07:54:14  -699.354886        c -1.36
iter: 216 07:55:08  -690.800259        c -0.86
iter: 217 07:55:57  -620.517310        c -0.88
iter: 218 07:56:48  -699.688692        c -1.06
iter: 219 07:57:36  -623.516543        c -0.89
iter: 220 07:58:24  -590.889517        c -1.09
iter: 221 07:59:16  -700.365263        c -1.36
iter: 222 08:00:08  -691.654152        c -0.86
iter: 223 08:00:56  -620.041145        c -0.88
iter: 224 08:01:47  -699.262223        c -1.06
iter: 225 08:02:37  -622.486016        c -0.89
iter: 226 08:03:34  -590.934477        c -1.09
iter: 227 08:04:23  -699.930285        c -1.36
iter: 228 08:05:15  -692.397409        c -0.86
iter: 229 08:06:08  -619.593999        c -0.88
iter: 230 08:06:59  -697.988855        c -1.07
iter: 231 08:07:49  -621.784603        c -0.89
iter: 232 08:08:39  -590.951274        c -1.10
iter: 233 08:09:31  -698.678963        c -1.36
iter: 234 08:10:25  -693.025583        c -0.86
iter: 235 08:11:20  -619.206732        c -0.88
iter: 236 08:12:13  -696.504243        c -1.07
iter: 237 08:13:03  -621.350046        c -0.89
iter: 238 08:13:52  -590.952296        c -1.10
iter: 239 08:14:45  -697.206401        c -1.36
iter: 240 08:15:33  -693.483751        c -0.86
iter: 241 08:16:39  -618.908309        c -0.87
iter: 242 08:17:35  -695.158036        c -1.07
iter: 243 08:18:34  -621.106302        c -0.89
iter: 244 08:19:30  -590.946617        c -1.10
iter: 245 08:20:26  -695.890217        c -1.37
iter: 246 08:21:22  -693.745479        c -0.87
iter: 247 08:22:28  -618.701100        c -0.87
iter: 248 08:23:34  -694.098398        c -1.07
iter: 249 08:24:40  -620.986045        c -0.89
iter: 250 08:25:43  -590.940296        c -1.10
iter: 251 08:26:40  -694.884409        c -1.37
iter: 252 08:27:35  -693.814331        c -0.87
iter: 253 08:28:25  -618.578689        c -0.87
iter: 254 08:29:19  -693.338009        c -1.07
iter: 255 08:30:46  -620.942385        c -0.90
iter: 256 08:31:51  -590.935385        c -1.10
iter: 257 08:32:46  -694.208071        c -1.37
iter: 258 08:33:56  -693.747440        c -0.87
iter: 259 08:34:51  -618.520368        c -0.87
iter: 260 08:35:48  -692.835077        c -1.07
iter: 261 08:36:45  -620.942692        c -0.90
iter: 262 08:37:43  -590.932536        c -1.10
iter: 263 08:38:41  -693.798599        c -1.37
iter: 264 08:39:35  -693.599753        c -0.87
iter: 265 08:40:29  -618.508010        c -0.87
iter: 266 08:41:18  -692.532861        c -1.07
iter: 267 08:42:11  -620.965646        c -0.90
iter: 268 08:43:03  -590.931286        c -1.10
iter: 269 08:43:54  -693.586634        c -1.37
iter: 270 08:44:47  -693.422954        c -0.87
iter: 271 08:45:39  -618.524767        c -0.87
iter: 272 08:46:35  -692.372642        c -1.07
iter: 273 08:47:29  -620.998410        c -0.90
iter: 274 08:48:41  -590.931137        c -1.10
iter: 275 08:49:43  -693.502886        c -1.37
iter: 276 08:50:52  -693.246777        c -0.87
iter: 277 08:51:48  -618.558731        c -0.87
iter: 278 08:52:42  -692.310508        c -1.07
iter: 279 08:53:40  -621.033390        c -0.90
iter: 280 08:54:38  -590.931647        c -1.10
iter: 281 08:55:33  -693.499086        c -1.37
iter: 282 08:56:32  -693.090884        c -0.87
iter: 283 08:57:42  -618.600843        c -0.88
iter: 284 08:59:01  -692.310206        c -1.07
iter: 285 09:00:19  -621.066529        c -0.90
iter: 286 09:01:19  -590.932585        c -1.10
iter: 287 09:02:41  -693.537759        c -1.37
iter: 288 09:03:43  -692.960653        c -0.87
iter: 289 09:04:44  -618.645676        c -0.88
iter: 290 09:05:42  -692.348204        c -1.07
iter: 291 09:07:19  -621.095863        c -0.90
iter: 292 09:08:20  -590.933772        c -1.10
iter: 293 09:09:23  -693.597489        c -1.37
iter: 294 09:10:51  -692.858107        c -0.87
iter: 295 09:12:22  -618.689400        c -0.88
iter: 296 09:13:13  -692.406278        c -1.07
iter: 297 09:14:05  -621.120752        c -0.90
iter: 298 09:14:58  -590.935123        c -1.10
iter: 299 09:15:58  -693.662860        c -1.37
iter: 300 09:17:19  -692.779478        c -0.87
iter: 301 09:18:33  -618.730156        c -0.88
iter: 302 09:20:11  -692.473738        c -1.07
iter: 303 09:22:02  -621.141232        c -0.90
iter: 304 09:22:56  -590.936548        c -1.10
iter: 305 09:24:00  -693.726899        c -1.37
iter: 306 09:24:51  -692.721671        c -0.87
iter: 307 09:25:52  -618.766726        c -0.88
iter: 308 09:26:49  -692.542402        c -1.07
iter: 309 09:27:39  -621.157732        c -0.90
iter: 310 09:28:34  -590.937993        c -1.10
iter: 311 09:30:02  -693.784535        c -1.37
iter: 312 09:30:56  -692.679788        c -0.87
iter: 313 09:31:54  -618.798854        c -0.88
iter: 314 09:33:02  -692.608181        c -1.07
iter: 315 09:34:10  -621.170810        c -0.90
iter: 316 09:35:00  -590.939397        c -1.10
iter: 317 09:35:54  -693.834638        c -1.37
iter: 318 09:36:45  -692.650635        c -0.87
iter: 319 09:38:19  -618.826450        c -0.88
iter: 320 09:41:25  -692.667955        c -1.07
iter: 321 09:44:19  -621.181066        c -0.90
iter: 322 09:46:52  -590.940726        c -1.10
iter: 323 09:47:47  -693.876178        c -1.37
iter: 324 09:50:04  -692.630562        c -0.87
iter: 325 09:51:08  -618.849875        c -0.88
iter: 326 09:52:01  -692.720781        c -1.07
iter: 327 09:52:52  -621.189052        c -0.90
iter: 328 09:53:48  -590.941946        c -1.10
iter: 329 09:54:43  -693.909946        c -1.37
iter: 330 09:55:41  -692.617427        c -0.87
iter: 331 09:56:42  -618.869456        c -0.88
iter: 332 09:57:37  -692.765963        c -1.07
iter: 333 09:58:29  -621.195262        c -0.90

Did not converge!

Here are some tips:

1) Make sure the geometry and spin-state is physically sound.
2) Use less aggressive density mixing.
3) Solve the eigenvalue problem more accurately at each scf-step.
4) Use a smoother distribution function for the occupation numbers.
5) Try adding more empty states.
6) Use enough k-points.
7) Don't let your structure optimization algorithm take too large steps.
8) Solve the Poisson equation more accurately.
9) Better initial guess for the wave functions.

See details here:

    https://gpaw.readthedocs.io/documentation/convergence.html


Timing:                              incl.     excl.
-----------------------------------------------------------
Basic WFS set positions:             0.002     0.002   0.0% |
Basis functions set positions:       0.305     0.305   0.0% |
LCAO WFS Initialize:                 1.908     0.209   0.0% |
 Hamiltonian:                        1.700     0.000   0.0% |
  Atomic:                            0.262     0.003   0.0% |
   XC Correction:                    0.260     0.260   0.0% |
  Calculate atomic Hamiltonians:     0.040     0.040   0.0% |
  Communicate:                       0.000     0.000   0.0% |
  Hartree integrate/restrict:        0.103     0.103   0.0% |
  Initialize Hamiltonian:            0.000     0.000   0.0% |
  Poisson:                           0.981     0.061   0.0% |
   Communicate from 1D:              0.094     0.094   0.0% |
   Communicate from 2D:              0.095     0.095   0.0% |
   Communicate to 1D:                0.062     0.062   0.0% |
   Communicate to 2D:                0.094     0.094   0.0% |
   FFT 1D:                           0.136     0.136   0.0% |
   FFT 2D:                           0.438     0.438   0.0% |
  XC 3D grid:                        0.297     0.297   0.0% |
  vbar:                              0.017     0.017   0.0% |
P tci:                               2.095     2.095   0.0% |
SCF-cycle:                       18380.762     0.628   0.0% |
 Density:                         7572.886     0.006   0.0% |
  Atomic density matrices:           7.518     7.518   0.0% |
  Mix:                              72.509    72.509   0.4% |
  Multipole moments:                 0.158     0.158   0.0% |
  Normalize:                         0.464     0.464   0.0% |
  Pseudo density:                 7492.231     1.089   0.0% |
   Calculate density matrix:        94.852    94.852   0.5% |
   Construct density:             7384.836  7384.836  40.1% |---------------|
   Symmetrize density:              11.455    11.455   0.1% |
 Hamiltonian:                      562.266     0.019   0.0% |
  Atomic:                           87.304     0.959   0.0% |
   XC Correction:                   86.345    86.345   0.5% |
  Calculate atomic Hamiltonians:    13.384    13.384   0.1% |
  Communicate:                       0.001     0.001   0.0% |
  Hartree integrate/restrict:       34.288    34.288   0.2% |
  Poisson:                         321.640    18.473   0.1% |
   Communicate from 1D:             31.817    31.817   0.2% |
   Communicate from 2D:             31.883    31.883   0.2% |
   Communicate to 1D:               20.848    20.848   0.1% |
   Communicate to 2D:               31.665    31.665   0.2% |
   FFT 1D:                          45.130    45.130   0.2% |
   FFT 2D:                         141.824   141.824   0.8% |
  XC 3D grid:                      102.518   102.518   0.6% |
  vbar:                              3.112     3.112   0.0% |
 LCAO eigensolver:               10244.982    13.118   0.1% |
  Calculate projections:           219.728   219.728   1.2% |
  DenseAtomicCorrection:          3767.663  3767.663  20.5% |-------|
  Distribute overlap matrix:        39.253    39.253   0.2% |
  Orbital Layouts:                3969.809  3969.809  21.6% |--------|
  Potential matrix:               2155.654  2155.654  11.7% |----|
  Sum over cells:                   79.758    79.758   0.4% |
ST tci:                              0.780     0.780   0.0% |
Set symmetry:                        0.001     0.001   0.0% |
TCI: Evaluate splines:               0.123     0.123   0.0% |
mktci:                               0.010     0.010   0.0% |
Other:                              15.632    15.632   0.1% |
-----------------------------------------------------------
Total:                                     18401.618 100.0%

Memory usage: 4.49 GiB
Date: Sat Feb 21 09:58:53 2026
