
  ___ ___ ___ _ _ _  
 |   |   |_  | | | | 
 | | | | | . | | | | 
 |__ |  _|___|_____|  25.7.0
 |___|_|             

User:   mikei@Z790-AORUS-ELITE-AX
Date:   Fri Feb 20 14:02:41 2026
Arch:   x86_64
Pid:    89048
CWD:    /home/mikei/Dokumenty/code/cemea/ocx
Python: 3.10.16
gpaw:   /home/mikei/.pyenv/versions/cemea-env/lib/python3.10/site-packages/gpaw
_gpaw:  /home/mikei/.pyenv/versions/cemea-env/lib/python3.10/site-packages/
        _gpaw.cpython-310-x86_64-linux-gnu.so
ase:    /home/mikei/.pyenv/versions/cemea-env/lib/python3.10/site-packages/ase (version 3.27.0)
numpy:  /home/mikei/.pyenv/versions/cemea-env/lib/python3.10/site-packages/numpy (version 2.2.6)
scipy:  /home/mikei/.pyenv/versions/cemea-env/lib/python3.10/site-packages/scipy (version 1.15.3)
libxc:  2.x.y
units:  Angstrom and eV
cores: 1
OpenMP: False
OMP_NUM_THREADS: 1

Input parameters:
  basis: dzp
  convergence: {density: 0.0001,
                eigenstates: 1e-05,
                energy: 1e-05}
  kpts: [4 4 1]
  mode: lcao

System changes: positions, numbers, cell, pbc, initial_charges, initial_magmoms 

Initialize ...

species:
  Mo:
    name: Molybdenum
    id: ac24daaf086600a00ce6d19a74574df1
    Z: 42.0
    valence: 14
    core: 28
    charge: 0.0
    file: /home/mikei/.pyenv/versions/cemea-env/lib/python3.10/site-packages/gpaw_data/setups/Mo.LDA.gz
    compensation charges: {type: gauss,
                           rc: 0.38,
                           lmax: 2}
    cutoffs: {filter: 2.16,
              core: 1.42}
    projectors:
      #              energy  rcut
      - 4s(2.00)   -64.384   1.238
      - 5s(1.00)    -4.319   1.238
      - 4p(6.00)   -38.595   1.296
      - 5p(0.00)    -1.161   1.296
      - 4d(5.00)    -3.933   1.296
      -  d          23.278   1.296
  
    # LCAO basis set for Mo:
    #   Name: dzp
    #   File: /home/mikei/.pyenv/versions/cemea-env/lib/python3.10/site-packages/gpaw_data/setups/Mo.dzp.basis.gz
    #   Number of radial functions: 11
    #   Number of spherical harmonics: 29
    #     l=0, rc=3.5469 Bohr: 4s-sz confined orbital
    #     l=0, rc=10.0469 Bohr: 5s-sz confined orbital
    #     l=1, rc=4.0781 Bohr: 4p-sz confined orbital
    #     l=1, rc=14.0938 Bohr: 5p-sz confined orbital
    #     l=2, rc=7.2031 Bohr: 4d-sz confined orbital
    #     l=0, rc=2.1250 Bohr: 4s-dz split-valence wave
    #     l=0, rc=6.1250 Bohr: 5s-dz split-valence wave
    #     l=1, rc=2.5469 Bohr: 4p-dz split-valence wave
    #     l=1, rc=8.7656 Bohr: 5p-dz split-valence wave
    #     l=2, rc=4.2344 Bohr: 4d-dz split-valence wave
    #     l=1, rc=10.0469 Bohr: p-type Gaussian polarization
    #   Number of RI-basis functions 0

  C:
    name: Carbon
    id: d60576a1f549371a163e72552ca58787
    Z: 6.0
    valence: 4
    core: 2
    charge: 0.0
    file: /home/mikei/.pyenv/versions/cemea-env/lib/python3.10/site-packages/gpaw_data/setups/C.LDA.gz
    compensation charges: {type: gauss,
                           rc: 0.20,
                           lmax: 2}
    cutoffs: {filter: 1.14,
              core: 1.14}
    projectors:
      #              energy  rcut
      - 2s(2.00)   -13.639   0.635
      - 2p(2.00)    -5.414   0.635
      -  s          13.573   0.635
      -  p          21.797   0.635
      -  d           0.000   0.635
  
    # LCAO basis set for C:
    #   Name: dzp
    #   File: /home/mikei/.pyenv/versions/cemea-env/lib/python3.10/site-packages/gpaw_data/setups/C.dzp.basis.gz
    #   Number of radial functions: 5
    #   Number of spherical harmonics: 13
    #     l=0, rc=5.5469 Bohr: 2s-sz confined orbital
    #     l=1, rc=6.6719 Bohr: 2p-sz confined orbital
    #     l=0, rc=3.0312 Bohr: 2s-dz split-valence wave
    #     l=1, rc=3.7500 Bohr: 2p-dz split-valence wave
    #     l=2, rc=6.6719 Bohr: d-type Gaussian polarization
    #   Number of RI-basis functions 0

  H:
    name: Hydrogen
    id: 4766778ce56282eaa64abeb28b7c1de3
    Z: 1.0
    valence: 1
    core: 0
    charge: 0.0
    file: /home/mikei/.pyenv/versions/cemea-env/lib/python3.10/site-packages/gpaw_data/setups/H.LDA.gz
    compensation charges: {type: gauss,
                           rc: 0.15,
                           lmax: 2}
    cutoffs: {filter: 0.85,
              core: 0.53}
    projectors:
      #              energy  rcut
      - 1s(1.00)    -6.353   0.476
      -  s          20.858   0.476
      -  p           0.000   0.476
  
    # LCAO basis set for H:
    #   Name: dzp
    #   File: /home/mikei/.pyenv/versions/cemea-env/lib/python3.10/site-packages/gpaw_data/setups/H.dzp.basis.gz
    #   Number of radial functions: 3
    #   Number of spherical harmonics: 5
    #     l=0, rc=6.4219 Bohr: 1s-sz confined orbital
    #     l=0, rc=3.6094 Bohr: 1s-dz split-valence wave
    #     l=1, rc=6.4219 Bohr: p-type Gaussian polarization
    #   Number of RI-basis functions 0

Reference energy: -664206.217335  # eV

Spin-paired calculation

Convergence criteria:
 Maximum [total energy] change in last 3 cyles: 1e-05 eV / valence electron
 Maximum integral of absolute [dens]ity change: 0.0001 electrons / valence electron
 Maximum integral of absolute [eigenst]ate change: 1e-05 eV^2 / valence electron
 Maximum number of scf [iter]ations: 333
 (Square brackets indicate name in SCF output, whereas a 'c' in
 the SCF output indicates the quantity has converged.)

Symmetries present (total): 1

  ( 1  0  0)
  ( 0  1  0)
  ( 0  0  1)

16 k-points: 4 x 4 x 1 Monkhorst-Pack grid
8 k-points in the irreducible part of the Brillouin zone
       k-points in crystal coordinates                weights
   0:     0.12500000   -0.37500000    0.00000000          2/16
   1:     0.12500000   -0.12500000    0.00000000          2/16
   2:     0.12500000    0.12500000    0.00000000          2/16
   3:     0.12500000    0.37500000    0.00000000          2/16
   4:     0.37500000   -0.37500000    0.00000000          2/16
   5:     0.37500000   -0.12500000    0.00000000          2/16
   6:     0.37500000    0.12500000    0.00000000          2/16
   7:     0.37500000    0.37500000    0.00000000          2/16

Wave functions: LCAO
  Diagonalizer: Serial LAPACK
  Atomic Correction: dense with blas
  Data-type: complex
 

Occupation numbers: Fermi-Dirac:
  width: 0.1000  # eV
 

Eigensolver
   LCAO using direct dense diagonalizer 

Densities:
  Coarse grid: 40*40*92 grid
  Fine grid: 80*80*184 grid
  Total Charge: 0.000000 

Density mixing:
  Method: separate
  Backend: pulay
  Linear mixing parameter: 0.05
  old densities: 5
  Damping of long wavelength oscillations: 50 

Hamiltonian:
  XC and Coulomb potentials evaluated on a 80*80*184 grid
  Using the LDA Exchange-Correlation functional
  Interpolation: tri-quintic (5. degree polynomial)
  Poisson solver: FastPoissonSolver using
    Stencil: 6*3+1=19 point O(h^6) finite-difference Laplacian
    FFT axes: [np.int64(0), np.int64(1), np.int64(2)]
    FST axes: []
 

Memory estimate:
  Process memory now: 2222.55 MiB
  Calculator: 173.93 MiB
    Density: 71.91 MiB
      Arrays: 29.20 MiB
      Localized functions: 31.48 MiB
      Mixer: 11.23 MiB
    Hamiltonian: 21.14 MiB
      Arrays: 19.09 MiB
      XC: 0.00 MiB
      Poisson: 0.00 MiB
      vbar: 2.05 MiB
    Wavefunctions: 80.87 MiB
      C [qnM]: 1.83 MiB
      S, T [2 x qmm]: 13.03 MiB
      P [aqMi]: 0.29 MiB
      BasisFunctions: 65.72 MiB
      Eigensolver: 0.00 MiB

Total number of cores used: 1

Number of atoms: 11
Number of atomic orbitals: 231
Number of bands in calculation: 65
Number of valence electrons: 101
Bands to converge: occupied

... initialized

Initializing position-dependent things.

Density initialized from atomic densities
      .-------------------.  
     /|                   |  
    / |                   |  
   /  |                   |  
  /   |                   |  
 *    |                   |  
 |    |                   |  
 |    |                   |  
 |    |                   |  
 |    |                   |  
 |    |                   |  
 |    |     H       Mo    |  
 |    |                   |  
 |    |          Mo       |  
 |    |   C         C     |  
 |  Mo|       Mo          |  
 |    |C         C        |  
 Mo   |    Mo             |  
 |    |                   |  
 |    |                   |  
 |    |                   |  
 |    |                   |  
 |    .-------------------.  
 |   /                   /   
 |  /                   /    
 | /                   /     
 |/                   /      
 *-------------------*       

Atomic positions and initial magnetic moments

Positions:
   0 Mo     0.000000    0.000000    8.000000    ( 0.0000,  0.0000,  0.0000)
   1 C      2.060000    2.060000    8.000000    ( 0.0000,  0.0000,  0.0000)
   2 Mo     0.000000    4.120000    8.000000    ( 0.0000,  0.0000,  0.0000)
   3 C      2.060000    6.180000    8.000000    ( 0.0000,  0.0000,  0.0000)
   4 Mo     4.120000    0.000000    8.000000    ( 0.0000,  0.0000,  0.0000)
   5 Mo     6.180000    2.060000   10.060000    ( 0.0000,  0.0000,  0.0000)
   6 C      6.180000    2.060000    8.000000    ( 0.0000,  0.0000,  0.0000)
   7 Mo     4.120000    4.120000    8.000000    ( 0.0000,  0.0000,  0.0000)
   8 Mo     6.180000    6.180000   10.060000    ( 0.0000,  0.0000,  0.0000)
   9 C      6.180000    6.180000    8.000000    ( 0.0000,  0.0000,  0.0000)
  10 H      3.708000    3.296000   11.560000    ( 0.0000,  0.0000,  0.0000)

Unit cell:
           periodic     x           y           z      points  spacing
  1. axis:    yes    8.240000    0.000000    0.000000    40     0.2060
  2. axis:    yes    0.000000    8.240000    0.000000    40     0.2060
  3. axis:    yes    0.000000    0.000000   18.060000    92     0.1963

  Lengths:   8.240000   8.240000  18.060000
  Angles:   90.000000  90.000000  90.000000

Effective grid spacing dv^(1/3) = 0.2027

     iter     time        total  log10-change:
                         energy   eigst   dens
iter:   1 14:02:46   -76.024693        c
iter:   2 14:02:57   -68.089757        c -0.78
iter:   3 14:03:05   -63.715759        c -0.93
iter:   4 14:03:13   -62.121386        c -1.04
iter:   5 14:03:23   -61.167294        c -1.13
iter:   6 14:03:31   -60.488883        c -1.20
iter:   7 14:03:37   -60.101906        c -1.29
iter:   8 14:03:49   -59.937286        c -1.40
iter:   9 14:03:59   -59.815937        c -1.43
iter:  10 14:04:06   -59.648727        c -1.53
iter:  11 14:04:14   -59.672978        c -1.77
iter:  12 14:04:25   -59.619337        c -1.75
iter:  13 14:04:34   -59.596639        c -1.91
iter:  14 14:04:42   -59.584806        c -1.99
iter:  15 14:04:49   -59.571954        c -2.00
iter:  16 14:04:57   -59.558015        c -2.05
iter:  17 14:05:07   -59.551435        c -2.16
iter:  18 14:05:17   -59.547511        c -2.21
iter:  19 14:05:26   -59.544642        c -2.26
iter:  20 14:05:33   -59.543054        c -2.42
iter:  21 14:05:42   -59.542409        c -2.56
iter:  22 14:05:50   -59.543036c       c -2.61
iter:  23 14:06:00   -59.541896        c -2.65
iter:  24 14:06:12   -59.542248        c -2.75
iter:  25 14:06:21   -59.542234c       c -2.78
iter:  26 14:06:29   -59.541676c       c -2.86
iter:  27 14:06:42   -59.541523c       c -2.90
iter:  28 14:06:50   -59.541380c       c -2.97
iter:  29 14:07:00   -59.541065c       c -3.06
iter:  30 14:07:07   -59.540646c       c -3.11
iter:  31 14:07:15   -59.540730c       c -3.11
iter:  32 14:07:26   -59.540380c       c -3.20
iter:  33 14:07:34   -59.540225c       c -3.23
iter:  34 14:07:43   -59.540158c       c -3.30
iter:  35 14:07:50   -59.539965c       c -3.33
iter:  36 14:07:58   -59.539832c       c -3.36
iter:  37 14:08:09   -59.539880c       c -3.36
iter:  38 14:08:17   -59.539789c       c -3.44
iter:  39 14:08:30   -59.539734c       c -3.48
iter:  40 14:08:36   -59.539767c       c -3.49
iter:  41 14:08:46   -59.539751c       c -3.56
iter:  42 14:08:56   -59.539726c       c -3.61
iter:  43 14:09:05   -59.539822c       c -3.61
iter:  44 14:09:12   -59.539800c       c -3.67
iter:  45 14:09:22   -59.539807c       c -3.72
iter:  46 14:09:30   -59.539861c       c -3.77
iter:  47 14:09:42   -59.539872c       c -3.86
iter:  48 14:09:49   -59.539872c       c -3.90
iter:  49 14:09:56   -59.539936c       c -3.89
iter:  50 14:10:05   -59.539920c       c -3.97
iter:  51 14:10:13   -59.539922c       c -4.03c

Converged after 51 iterations.

Dipole moment: (-4.419821, -5.584258, 0.106833) |e|*Ang

Energy contributions relative to reference atoms: (reference = -664206.217335)

Kinetic:       -168.953470
Potential:     +115.995097
External:        +0.000000
XC:              -6.861802
Entropy (-ST):   -1.089350
Local:           +0.824927
SIC:             +0.000000
--------------------------
Free energy:    -60.084597
Extrapolated:   -59.539922

Showing only first 2 kpts
 Kpt  Band  Eigenvalues  Occupancy
  0    48     -3.11676    1.51724
  0    49     -3.02946    1.13524
  0    50     -2.99167    0.94716
  0    51     -2.93848    0.69156

  1    48     -3.06530    1.30523
  1    49     -2.98371    0.90759
  1    50     -2.94760    0.73336
  1    51     -2.90965    0.56750


Fermi level: -3.00225

No gap
No difference between direct/indirect transitions
Timing:                              incl.     excl.
-----------------------------------------------------------
Basic WFS set positions:             0.000     0.000   0.0% |
Basis functions set positions:       0.051     0.051   0.0% |
LCAO WFS Initialize:                 0.188     0.025   0.0% |
 Hamiltonian:                        0.164     0.000   0.0% |
  Atomic:                            0.045     0.001   0.0% |
   XC Correction:                    0.044     0.044   0.0% |
  Calculate atomic Hamiltonians:     0.004     0.004   0.0% |
  Communicate:                       0.000     0.000   0.0% |
  Hartree integrate/restrict:        0.005     0.005   0.0% |
  Initialize Hamiltonian:            0.001     0.001   0.0% |
  Poisson:                           0.068     0.005   0.0% |
   Communicate from 1D:              0.006     0.006   0.0% |
   Communicate from 2D:              0.007     0.007   0.0% |
   Communicate to 1D:                0.007     0.007   0.0% |
   Communicate to 2D:                0.008     0.008   0.0% |
   FFT 1D:                           0.015     0.015   0.0% |
   FFT 2D:                           0.021     0.021   0.0% |
  XC 3D grid:                        0.040     0.040   0.0% |
  vbar:                              0.001     0.001   0.0% |
P tci:                               0.150     0.150   0.0% |
SCF-cycle:                         451.520     0.067   0.0% |
 Density:                          201.413     0.001   0.0% |
  Atomic density matrices:           0.056     0.056   0.0% |
  Mix:                               4.569     4.569   1.0% |
  Multipole moments:                 0.004     0.004   0.0% |
  Normalize:                         0.004     0.004   0.0% |
  Pseudo density:                  196.780     0.019   0.0% |
   Calculate density matrix:         0.845     0.845   0.2% |
   Construct density:              195.915   195.915  43.3% |----------------|
   Symmetrize density:               0.001     0.001   0.0% |
 Hamiltonian:                       10.481     0.002   0.0% |
  Atomic:                            2.514     0.049   0.0% |
   XC Correction:                    2.466     2.466   0.5% |
  Calculate atomic Hamiltonians:     0.211     0.211   0.0% |
  Communicate:                       0.000     0.000   0.0% |
  Hartree integrate/restrict:        0.262     0.262   0.1% |
  Poisson:                           3.046     0.227   0.1% |
   Communicate from 1D:              0.319     0.319   0.1% |
   Communicate from 2D:              0.331     0.331   0.1% |
   Communicate to 1D:                0.293     0.293   0.1% |
   Communicate to 2D:                0.325     0.325   0.1% |
   FFT 1D:                           0.558     0.558   0.1% |
   FFT 2D:                           0.993     0.993   0.2% |
  XC 3D grid:                        3.958     3.958   0.9% |
  vbar:                              0.487     0.487   0.1% |
 LCAO eigensolver:                 239.559     0.046   0.0% |
  Calculate projections:            20.555    20.555   4.5% |-|
  DenseAtomicCorrection:            15.653    15.653   3.5% ||
  Distribute overlap matrix:         0.033     0.033   0.0% |
  Orbital Layouts:                 175.544   175.544  38.8% |---------------|
  Potential matrix:                 24.775    24.775   5.5% |-|
  Sum over cells:                    2.953     2.953   0.7% |
ST tci:                              0.093     0.093   0.0% |
Set symmetry:                        0.000     0.000   0.0% |
TCI: Evaluate splines:               0.165     0.165   0.0% |
mktci:                               0.003     0.003   0.0% |
Other:                               0.508     0.508   0.1% |
-----------------------------------------------------------
Total:                                       452.679 100.0%

Memory usage: 2.17 GiB
Date: Fri Feb 20 14:10:13 2026
