
  ___ ___ ___ _ _ _  
 |   |   |_  | | | | 
 | | | | | . | | | | 
 |__ |  _|___|_____|  25.7.0
 |___|_|             

User:   mikei@Z790-AORUS-ELITE-AX
Date:   Wed Feb 25 13:06:02 2026
Arch:   x86_64
Pid:    89048
CWD:    /home/mikei/Dokumenty/code/cemea/ocx
Python: 3.10.16
gpaw:   /home/mikei/.pyenv/versions/cemea-env/lib/python3.10/site-packages/gpaw
_gpaw:  /home/mikei/.pyenv/versions/cemea-env/lib/python3.10/site-packages/
        _gpaw.cpython-310-x86_64-linux-gnu.so
ase:    /home/mikei/.pyenv/versions/cemea-env/lib/python3.10/site-packages/ase (version 3.27.0)
numpy:  /home/mikei/.pyenv/versions/cemea-env/lib/python3.10/site-packages/numpy (version 2.2.6)
scipy:  /home/mikei/.pyenv/versions/cemea-env/lib/python3.10/site-packages/scipy (version 1.15.3)
libxc:  2.x.y
units:  Angstrom and eV
cores: 1
OpenMP: False
OMP_NUM_THREADS: 1

Input parameters:
  basis: dzp
  convergence: {density: 0.0001,
                eigenstates: 1e-05,
                energy: 1e-05}
  kpts: [4 4 1]
  mode: lcao

System changes: positions, numbers, cell, pbc, initial_charges, initial_magmoms 

Initialize ...

species:
  Ni:
    name: Nickel
    id: 1802175e8de9ea26d9f4394ec1a7d564
    Z: 28.0
    valence: 16
    core: 12
    charge: 0.0
    file: /home/mikei/.pyenv/versions/cemea-env/lib/python3.10/site-packages/gpaw_data/setups/Ni.LDA.gz
    compensation charges: {type: gauss,
                           rc: 0.36,
                           lmax: 2}
    cutoffs: {filter: 2.14,
              core: 1.98}
    projectors:
      #              energy  rcut
      - 4s(2.00)    -5.858   1.164
      - 3p(6.00)   -71.266   1.207
      - 4p(0.00)    -1.338   1.207
      - 3d(8.00)    -9.141   1.138
      -  s          21.353   1.164
      -  d          18.071   1.138
  
    # LCAO basis set for Ni:
    #   Name: dzp
    #   File: /home/mikei/.pyenv/versions/cemea-env/lib/python3.10/site-packages/gpaw_data/setups/Ni.dzp.basis.gz
    #   Number of radial functions: 9
    #   Number of spherical harmonics: 27
    #     l=0, rc=8.5156 Bohr: 4s-sz confined orbital
    #     l=1, rc=2.9375 Bohr: 3p-sz confined orbital
    #     l=1, rc=12.4062 Bohr: 4p-sz confined orbital
    #     l=2, rc=4.6875 Bohr: 3d-sz confined orbital
    #     l=0, rc=4.9688 Bohr: 4s-dz split-valence wave
    #     l=1, rc=2.0781 Bohr: 3p-dz split-valence wave
    #     l=1, rc=7.5469 Bohr: 4p-dz split-valence wave
    #     l=2, rc=2.9375 Bohr: 3d-dz split-valence wave
    #     l=1, rc=8.5156 Bohr: p-type Gaussian polarization
    #   Number of RI-basis functions 0

  Mo:
    name: Molybdenum
    id: ac24daaf086600a00ce6d19a74574df1
    Z: 42.0
    valence: 14
    core: 28
    charge: 0.0
    file: /home/mikei/.pyenv/versions/cemea-env/lib/python3.10/site-packages/gpaw_data/setups/Mo.LDA.gz
    compensation charges: {type: gauss,
                           rc: 0.38,
                           lmax: 2}
    cutoffs: {filter: 2.16,
              core: 1.42}
    projectors:
      #              energy  rcut
      - 4s(2.00)   -64.384   1.238
      - 5s(1.00)    -4.319   1.238
      - 4p(6.00)   -38.595   1.296
      - 5p(0.00)    -1.161   1.296
      - 4d(5.00)    -3.933   1.296
      -  d          23.278   1.296
  
    # LCAO basis set for Mo:
    #   Name: dzp
    #   File: /home/mikei/.pyenv/versions/cemea-env/lib/python3.10/site-packages/gpaw_data/setups/Mo.dzp.basis.gz
    #   Number of radial functions: 11
    #   Number of spherical harmonics: 29
    #     l=0, rc=3.5469 Bohr: 4s-sz confined orbital
    #     l=0, rc=10.0469 Bohr: 5s-sz confined orbital
    #     l=1, rc=4.0781 Bohr: 4p-sz confined orbital
    #     l=1, rc=14.0938 Bohr: 5p-sz confined orbital
    #     l=2, rc=7.2031 Bohr: 4d-sz confined orbital
    #     l=0, rc=2.1250 Bohr: 4s-dz split-valence wave
    #     l=0, rc=6.1250 Bohr: 5s-dz split-valence wave
    #     l=1, rc=2.5469 Bohr: 4p-dz split-valence wave
    #     l=1, rc=8.7656 Bohr: 5p-dz split-valence wave
    #     l=2, rc=4.2344 Bohr: 4d-dz split-valence wave
    #     l=1, rc=10.0469 Bohr: p-type Gaussian polarization
    #   Number of RI-basis functions 0

  C:
    name: Carbon
    id: d60576a1f549371a163e72552ca58787
    Z: 6.0
    valence: 4
    core: 2
    charge: 0.0
    file: /home/mikei/.pyenv/versions/cemea-env/lib/python3.10/site-packages/gpaw_data/setups/C.LDA.gz
    compensation charges: {type: gauss,
                           rc: 0.20,
                           lmax: 2}
    cutoffs: {filter: 1.14,
              core: 1.14}
    projectors:
      #              energy  rcut
      - 2s(2.00)   -13.639   0.635
      - 2p(2.00)    -5.414   0.635
      -  s          13.573   0.635
      -  p          21.797   0.635
      -  d           0.000   0.635
  
    # LCAO basis set for C:
    #   Name: dzp
    #   File: /home/mikei/.pyenv/versions/cemea-env/lib/python3.10/site-packages/gpaw_data/setups/C.dzp.basis.gz
    #   Number of radial functions: 5
    #   Number of spherical harmonics: 13
    #     l=0, rc=5.5469 Bohr: 2s-sz confined orbital
    #     l=1, rc=6.6719 Bohr: 2p-sz confined orbital
    #     l=0, rc=3.0312 Bohr: 2s-dz split-valence wave
    #     l=1, rc=3.7500 Bohr: 2p-dz split-valence wave
    #     l=2, rc=6.6719 Bohr: d-type Gaussian polarization
    #   Number of RI-basis functions 0

  H:
    name: Hydrogen
    id: 4766778ce56282eaa64abeb28b7c1de3
    Z: 1.0
    valence: 1
    core: 0
    charge: 0.0
    file: /home/mikei/.pyenv/versions/cemea-env/lib/python3.10/site-packages/gpaw_data/setups/H.LDA.gz
    compensation charges: {type: gauss,
                           rc: 0.15,
                           lmax: 2}
    cutoffs: {filter: 0.85,
              core: 0.53}
    projectors:
      #              energy  rcut
      - 1s(1.00)    -6.353   0.476
      -  s          20.858   0.476
      -  p           0.000   0.476
  
    # LCAO basis set for H:
    #   Name: dzp
    #   File: /home/mikei/.pyenv/versions/cemea-env/lib/python3.10/site-packages/gpaw_data/setups/H.dzp.basis.gz
    #   Number of radial functions: 3
    #   Number of spherical harmonics: 5
    #     l=0, rc=6.4219 Bohr: 1s-sz confined orbital
    #     l=0, rc=3.6094 Bohr: 1s-dz split-valence wave
    #     l=1, rc=6.4219 Bohr: p-type Gaussian polarization
    #   Number of RI-basis functions 0

Reference energy: -2453668.486466  # eV

Spin-paired calculation

Convergence criteria:
 Maximum [total energy] change in last 3 cyles: 1e-05 eV / valence electron
 Maximum integral of absolute [dens]ity change: 0.0001 electrons / valence electron
 Maximum integral of absolute [eigenst]ate change: 1e-05 eV^2 / valence electron
 Maximum number of scf [iter]ations: 333
 (Square brackets indicate name in SCF output, whereas a 'c' in
 the SCF output indicates the quantity has converged.)

Symmetries present (total): 1

  ( 1  0  0)
  ( 0  1  0)
  ( 0  0  1)

16 k-points: 4 x 4 x 1 Monkhorst-Pack grid
8 k-points in the irreducible part of the Brillouin zone
       k-points in crystal coordinates                weights
   0:     0.12500000   -0.37500000    0.00000000          2/16
   1:     0.12500000   -0.12500000    0.00000000          2/16
   2:     0.12500000    0.12500000    0.00000000          2/16
   3:     0.12500000    0.37500000    0.00000000          2/16
   4:     0.37500000   -0.37500000    0.00000000          2/16
   5:     0.37500000   -0.12500000    0.00000000          2/16
   6:     0.37500000    0.12500000    0.00000000          2/16
   7:     0.37500000    0.37500000    0.00000000          2/16

Wave functions: LCAO
  Diagonalizer: Serial LAPACK
  Atomic Correction: dense with blas
  Data-type: complex
 

Occupation numbers: Fermi-Dirac:
  width: 0.1000  # eV
 

Eigensolver
   LCAO using direct dense diagonalizer 

Densities:
  Coarse grid: 32*32*132 grid
  Fine grid: 64*64*264 grid
  Total Charge: 0.000000 

Density mixing:
  Method: separate
  Backend: pulay
  Linear mixing parameter: 0.05
  old densities: 5
  Damping of long wavelength oscillations: 50 

Hamiltonian:
  XC and Coulomb potentials evaluated on a 64*64*264 grid
  Using the LDA Exchange-Correlation functional
  Interpolation: tri-quintic (5. degree polynomial)
  Poisson solver: FastPoissonSolver using
    Stencil: 8*3+1=25 point O(h^6) finite-difference Laplacian
    FFT axes: [np.int64(0), np.int64(1), np.int64(2)]
    FST axes: []
 

Memory estimate:
  Process memory now: 4595.48 MiB
  Calculator: 1011.24 MiB
    Density: 205.00 MiB
      Arrays: 26.81 MiB
      Localized functions: 167.87 MiB
      Mixer: 10.31 MiB
    Hamiltonian: 30.01 MiB
      Arrays: 17.53 MiB
      XC: 0.00 MiB
      Poisson: 0.00 MiB
      vbar: 12.47 MiB
    Wavefunctions: 776.23 MiB
      C [qnM]: 71.75 MiB
      S, T [2 x qmm]: 422.17 MiB
      P [aqMi]: 8.88 MiB
      BasisFunctions: 273.43 MiB
      Eigensolver: 0.00 MiB

Total number of cores used: 1

Number of atoms: 51
Number of atomic orbitals: 1315
Number of bands in calculation: 447
Number of valence electrons: 737
Bands to converge: occupied

... initialized

Initializing position-dependent things.

Density initialized from atomic densities
                                         
                                         
                                         
                                         
                                         
                                         
                  H                      
               Ni    Ni                  
                Mo        Mo             
                                         
             Mo C      Mo C              
                                         
         Mo         Mo                   
             C         C                 
       Mo       NMo   Ni    Ni           
           Ni    Ni     Ni               
                 Ni    Ni    Ni          
       Ni   NNi   NNi   Ni               
        Ni    Ni    Ni                   
                   Ni    Ni    Ni        
               Ni    Ni    Ni            
           Ni    Ni    Ni                
                Ni    Ni    Ni           
           Ni    Ni     Ni               
       Ni    Ni    Ni                    
                                         
                                         
                                         
                                         

Atomic positions and initial magnetic moments

Positions:
   0 Ni     0.000000    0.000000    8.000000    ( 0.0000,  0.0000,  0.0000)
   1 Ni     2.489016    0.000000    8.000000    ( 0.0000,  0.0000,  0.0000)
   2 Ni     4.978032    0.000000    8.000000    ( 0.0000,  0.0000,  0.0000)
   3 Ni     1.244508    2.155551    8.000000    ( 0.0000,  0.0000,  0.0000)
   4 Ni     3.733524    2.155551    8.000000    ( 0.0000,  0.0000,  0.0000)
   5 Ni     6.222540    2.155551    8.000000    ( 0.0000,  0.0000,  0.0000)
   6 Ni     2.489016    4.311102    8.000000    ( 0.0000,  0.0000,  0.0000)
   7 Ni     4.978032    4.311102    8.000000    ( 0.0000,  0.0000,  0.0000)
   8 Ni     7.467048    4.311102    8.000000    ( 0.0000,  0.0000,  0.0000)
   9 Ni     1.244508    0.718517   10.032273    ( 0.0000,  0.0000,  0.0000)
  10 Ni     3.733524    0.718517   10.032273    ( 0.0000,  0.0000,  0.0000)
  11 Ni     6.222540    0.718517   10.032273    ( 0.0000,  0.0000,  0.0000)
  12 Ni     2.489016    2.874068   10.032273    ( 0.0000,  0.0000,  0.0000)
  13 Ni     4.978032    2.874068   10.032273    ( 0.0000,  0.0000,  0.0000)
  14 Ni     7.467048    2.874068   10.032273    ( 0.0000,  0.0000,  0.0000)
  15 Ni     3.733524    5.029619   10.032273    ( 0.0000,  0.0000,  0.0000)
  16 Ni     6.222540    5.029619   10.032273    ( 0.0000,  0.0000,  0.0000)
  17 Ni     8.711556    5.029619   10.032273    ( 0.0000,  0.0000,  0.0000)
  18 Ni     0.000000    1.437034   12.064546    ( 0.0000,  0.0000,  0.0000)
  19 Ni     2.489016    1.437034   12.064546    ( 0.0000,  0.0000,  0.0000)
  20 Ni     4.978032    1.437034   12.064546    ( 0.0000,  0.0000,  0.0000)
  21 Ni     1.244508    3.592585   12.064546    ( 0.0000,  0.0000,  0.0000)
  22 Ni     3.733524    3.592585   12.064546    ( 0.0000,  0.0000,  0.0000)
  23 Ni     6.222540    3.592585   12.064546    ( 0.0000,  0.0000,  0.0000)
  24 Ni     2.489016    5.748136   12.064546    ( 0.0000,  0.0000,  0.0000)
  25 Ni     4.978032    5.748136   12.064546    ( 0.0000,  0.0000,  0.0000)
  26 Ni     7.467048    5.748136   12.064546    ( 0.0000,  0.0000,  0.0000)
  27 Ni     0.000000    0.000000   14.096819    ( 0.0000,  0.0000,  0.0000)
  28 Ni     2.489016    0.000000   14.096819    ( 0.0000,  0.0000,  0.0000)
  29 Ni     4.978032    0.000000   14.096819    ( 0.0000,  0.0000,  0.0000)
  30 Ni     1.244508    2.155551   14.096819    ( 0.0000,  0.0000,  0.0000)
  31 Ni     3.733524    2.155551   14.096819    ( 0.0000,  0.0000,  0.0000)
  32 Ni     6.222540    2.155551   14.096819    ( 0.0000,  0.0000,  0.0000)
  33 Ni     2.489016    4.311102   14.096819    ( 0.0000,  0.0000,  0.0000)
  34 Ni     4.978032    4.311102   14.096819    ( 0.0000,  0.0000,  0.0000)
  35 Ni     7.467048    4.311102   14.096819    ( 0.0000,  0.0000,  0.0000)
  36 Mo     0.000000    0.000000   16.296819    ( 0.0000,  0.0000,  0.0000)
  37 Mo     2.060000    2.060000   18.356819    ( 0.0000,  0.0000,  0.0000)
  38 C      2.060000    2.060000   16.296819    ( 0.0000,  0.0000,  0.0000)
  39 Mo     0.000000    4.120000   16.296819    ( 0.0000,  0.0000,  0.0000)
  40 Mo     2.060000    6.180000   18.356819    ( 0.0000,  0.0000,  0.0000)
  41 C      2.060000    6.180000   16.296819    ( 0.0000,  0.0000,  0.0000)
  42 Mo     4.120000    0.000000   16.296819    ( 0.0000,  0.0000,  0.0000)
  43 Mo     6.180000    2.060000   18.356819    ( 0.0000,  0.0000,  0.0000)
  44 C      6.180000    2.060000   16.296819    ( 0.0000,  0.0000,  0.0000)
  45 Mo     4.120000    4.120000   16.296819    ( 0.0000,  0.0000,  0.0000)
  46 Mo     6.180000    6.180000   18.356819    ( 0.0000,  0.0000,  0.0000)
  47 C      6.180000    6.180000   16.296819    ( 0.0000,  0.0000,  0.0000)
  48 Ni     2.691821    2.879162   20.156819    ( 0.0000,  0.0000,  0.0000)
  49 Ni     5.091821    2.879162   20.156819    ( 0.0000,  0.0000,  0.0000)
  50 H      3.891821    2.879162   21.656819    ( 0.0000,  0.0000,  0.0000)

Unit cell:
           periodic     x           y           z      points  spacing
  1. axis:    yes    7.467048    0.000000    0.000000    32     0.2021
  2. axis:    yes    3.733524    6.466653    0.000000    32     0.2021
  3. axis:    yes    0.000000    0.000000   26.356819   132     0.1997

  Lengths:   7.467048   7.467048  26.356819
  Angles:   90.000000  90.000000  60.000000

Effective grid spacing dv^(1/3) = 0.2112

     iter     time        total  log10-change:
                         energy   eigst   dens
iter:   1 13:06:35 -1157.388980        c
iter:   2 13:08:13 -5820.037660        c -0.92
iter:   3 13:09:44  -601.542217        c -0.38
iter:   4 13:11:15  -448.667209        c -1.22
iter:   5 13:12:46  -500.397922        c -1.46
iter:   6 13:14:17  -437.777298        c -1.43
iter:   7 13:15:47  -428.821734        c -1.50
iter:   8 13:17:20  -455.947284        c -1.53
iter:   9 13:18:59  -409.314219        c -1.50
iter:  10 13:20:48  -536.550158        c -1.69
iter:  11 13:22:34  -419.236018        c -1.18
iter:  12 13:24:08  -402.888061        c -1.67
iter:  13 13:25:41  -409.380776        c -1.73
iter:  14 13:27:15  -406.012695        c -1.72
iter:  15 13:28:47  -401.935211        c -1.70
iter:  16 13:30:25  -411.788378        c -1.75
iter:  17 13:31:58  -403.112570        c -1.65
iter:  18 13:33:31  -406.394091        c -1.80
iter:  19 13:35:05  -400.142063        c -1.84
iter:  20 13:36:38  -440.026569        c -1.94
iter:  21 13:38:09  -408.920269        c -1.53
iter:  22 13:39:39  -401.601404        c -1.83
iter:  23 13:41:10  -396.977954        c -1.89
iter:  24 13:42:44  -414.972882        c -2.07
iter:  25 13:44:18  -397.913877        c -1.65
iter:  26 13:45:50  -400.369617        c -2.03
iter:  27 13:47:23  -397.653346        c -2.02
iter:  28 13:48:57  -404.040075        c -2.13
iter:  29 13:50:29  -400.066748        c -1.95
iter:  30 13:52:02  -427.058380        c -2.08
iter:  31 13:53:55  -396.943739        c -1.57
iter:  32 13:55:37  -397.961509        c -2.25
iter:  33 13:57:18  -395.706110        c -2.05
iter:  34 13:58:58  -396.598686        c -2.41
iter:  35 14:00:35  -395.603032        c -2.29
iter:  36 14:02:17  -396.258659        c -2.45
iter:  37 14:03:54  -396.833501        c -2.38
iter:  38 14:05:31  -395.438583        c -2.26
iter:  39 14:07:06  -395.438654        c -2.55
iter:  40 14:08:44  -395.608567        c -2.65
iter:  41 14:10:18  -396.259576        c -2.49
iter:  42 14:11:55  -395.541819        c -2.34
iter:  43 14:13:29  -395.543692        c -2.49
iter:  44 14:15:08  -395.299829        c -2.51
iter:  45 14:16:45  -395.505229        c -2.82
iter:  46 14:18:22  -395.333133        c -2.64
iter:  47 14:20:06  -395.242759        c -2.82
iter:  48 14:22:03  -396.064333        c -2.85
iter:  49 14:23:51  -395.241864        c -2.50
iter:  50 14:25:39  -395.393309        c -3.06
iter:  51 14:27:29  -395.259343        c -2.76
iter:  52 14:29:16  -395.248828        c -2.80
iter:  53 14:31:00  -395.242498        c -3.09
iter:  54 14:32:50  -395.273727        c -3.09
iter:  55 14:34:35  -395.260553        c -3.01
iter:  56 14:36:19  -395.363056        c -3.06
iter:  57 14:38:07  -395.249712        c -2.75
iter:  58 14:39:54  -395.233275        c -3.12
iter:  59 14:41:38  -395.271138        c -3.30
iter:  60 14:43:32  -395.231262        c -3.03
iter:  61 14:45:19  -395.225803        c -3.29
iter:  62 14:47:07  -395.228592c       c -3.38
iter:  63 14:48:52  -395.223467c       c -3.35
iter:  64 14:50:37  -395.224021c       c -3.36
iter:  65 14:52:22  -395.220659c       c -3.53
iter:  66 14:54:06  -395.224204c       c -3.38
iter:  67 14:55:53  -395.233547        c -3.67
iter:  68 14:57:46  -395.218736        c -3.34
iter:  69 14:59:31  -395.223971        c -3.71
iter:  70 15:01:20  -395.218699c       c -3.70
iter:  71 15:03:08  -395.222090c       c -3.73
iter:  72 15:04:52  -395.218790c       c -3.88
iter:  73 15:06:40  -395.221575c       c -3.97
iter:  74 15:08:30  -395.219476c       c -3.91
iter:  75 15:10:20  -395.219528c       c -3.74
iter:  76 15:12:04  -395.220149c       c -4.34c

Converged after 76 iterations.

Dipole moment: (-3.712800, 22.705553, 0.241385) |e|*Ang

Energy contributions relative to reference atoms: (reference = -2453668.486466)

Kinetic:       +238.057736
Potential:     -185.132434
External:        +0.000000
XC:            -445.218744
Entropy (-ST):   -3.583522
Local:           -1.134945
SIC:             +0.000000
--------------------------
Free energy:   -397.011910
Extrapolated:  -395.220149

Showing only first 2 kpts
 Kpt  Band  Eigenvalues  Occupancy
  0   366      1.26000    1.00547
  0   367      1.27365    0.93731
  0   368      1.28820    0.86526
  0   369      1.29174    0.84794

  1   366      1.17388    1.41035
  1   367      1.18358    1.36925
  1   368      1.19352    1.32557
  1   369      1.21030    1.24864


Fermi level: 1.26109

No gap
No difference between direct/indirect transitions
Timing:                              incl.     excl.
-----------------------------------------------------------
Basic WFS set positions:             0.000     0.000   0.0% |
Basis functions set positions:       0.183     0.183   0.0% |
LCAO WFS Initialize:                 0.367     0.080   0.0% |
 Hamiltonian:                        0.288     0.000   0.0% |
  Atomic:                            0.163     0.002   0.0% |
   XC Correction:                    0.161     0.161   0.0% |
  Calculate atomic Hamiltonians:     0.025     0.025   0.0% |
  Communicate:                       0.000     0.000   0.0% |
  Hartree integrate/restrict:        0.004     0.004   0.0% |
  Initialize Hamiltonian:            0.001     0.001   0.0% |
  Poisson:                           0.057     0.004   0.0% |
   Communicate from 1D:              0.006     0.006   0.0% |
   Communicate from 2D:              0.008     0.008   0.0% |
   Communicate to 1D:                0.006     0.006   0.0% |
   Communicate to 2D:                0.008     0.008   0.0% |
   FFT 1D:                           0.009     0.009   0.0% |
   FFT 2D:                           0.017     0.017   0.0% |
  XC 3D grid:                        0.037     0.037   0.0% |
  vbar:                              0.001     0.001   0.0% |
P tci:                               5.495     5.495   0.1% |
SCF-cycle:                        7549.102     0.279   0.0% |
 Density:                         5563.722     0.001   0.0% |
  Atomic density matrices:           1.499     1.499   0.0% |
  Mix:                               9.019     9.019   0.1% |
  Multipole moments:                 0.022     0.022   0.0% |
  Normalize:                         0.008     0.008   0.0% |
  Pseudo density:                 5553.173     0.029   0.0% |
   Calculate density matrix:        13.497    13.497   0.2% |
   Construct density:             5539.646  5539.646  73.3% |----------------------------|
   Symmetrize density:               0.002     0.002   0.0% |
 Hamiltonian:                       24.288     0.003   0.0% |
  Atomic:                           12.374     0.138   0.0% |
   XC Correction:                   12.236    12.236   0.2% |
  Calculate atomic Hamiltonians:     1.895     1.895   0.0% |
  Communicate:                       0.000     0.000   0.0% |
  Hartree integrate/restrict:        0.479     0.479   0.0% |
  Poisson:                           4.071     0.333   0.0% |
   Communicate from 1D:              0.442     0.442   0.0% |
   Communicate from 2D:              0.478     0.478   0.0% |
   Communicate to 1D:                0.470     0.470   0.0% |
   Communicate to 2D:                0.545     0.545   0.0% |
   FFT 1D:                           0.584     0.584   0.0% |
   FFT 2D:                           1.219     1.219   0.0% |
  XC 3D grid:                        4.573     4.573   0.1% |
  vbar:                              0.892     0.892   0.0% |
 LCAO eigensolver:                1960.813     2.051   0.0% |
  Calculate projections:            81.206    81.206   1.1% |
  DenseAtomicCorrection:           275.243   275.243   3.6% ||
  Distribute overlap matrix:         5.415     5.415   0.1% |
  Orbital Layouts:                 494.473   494.473   6.5% |--|
  Potential matrix:                868.464   868.464  11.5% |----|
  Sum over cells:                  233.961   233.961   3.1% ||
ST tci:                              2.250     2.250   0.0% |
Set symmetry:                        0.000     0.000   0.0% |
TCI: Evaluate splines:               0.378     0.378   0.0% |
mktci:                               0.030     0.030   0.0% |
Other:                               4.407     4.407   0.1% |
-----------------------------------------------------------
Total:                                      7562.213 100.0%

Memory usage: 4.49 GiB
Date: Wed Feb 25 15:12:04 2026
