
  ___ ___ ___ _ _ _  
 |   |   |_  | | | | 
 | | | | | . | | | | 
 |__ |  _|___|_____|  25.7.0
 |___|_|             

User:   mikei@Z790-AORUS-ELITE-AX
Date:   Mon Feb 23 19:12:56 2026
Arch:   x86_64
Pid:    89048
CWD:    /home/mikei/Dokumenty/code/cemea/ocx
Python: 3.10.16
gpaw:   /home/mikei/.pyenv/versions/cemea-env/lib/python3.10/site-packages/gpaw
_gpaw:  /home/mikei/.pyenv/versions/cemea-env/lib/python3.10/site-packages/
        _gpaw.cpython-310-x86_64-linux-gnu.so
ase:    /home/mikei/.pyenv/versions/cemea-env/lib/python3.10/site-packages/ase (version 3.27.0)
numpy:  /home/mikei/.pyenv/versions/cemea-env/lib/python3.10/site-packages/numpy (version 2.2.6)
scipy:  /home/mikei/.pyenv/versions/cemea-env/lib/python3.10/site-packages/scipy (version 1.15.3)
libxc:  2.x.y
units:  Angstrom and eV
cores: 1
OpenMP: False
OMP_NUM_THREADS: 1

Input parameters:
  basis: dzp
  convergence: {density: 0.0001,
                eigenstates: 1e-05,
                energy: 1e-05}
  kpts: [4 4 1]
  mode: lcao

System changes: positions, numbers, cell, pbc, initial_charges, initial_magmoms 

Initialize ...

species:
  Ni:
    name: Nickel
    id: 1802175e8de9ea26d9f4394ec1a7d564
    Z: 28.0
    valence: 16
    core: 12
    charge: 0.0
    file: /home/mikei/.pyenv/versions/cemea-env/lib/python3.10/site-packages/gpaw_data/setups/Ni.LDA.gz
    compensation charges: {type: gauss,
                           rc: 0.36,
                           lmax: 2}
    cutoffs: {filter: 2.14,
              core: 1.98}
    projectors:
      #              energy  rcut
      - 4s(2.00)    -5.858   1.164
      - 3p(6.00)   -71.266   1.207
      - 4p(0.00)    -1.338   1.207
      - 3d(8.00)    -9.141   1.138
      -  s          21.353   1.164
      -  d          18.071   1.138
  
    # LCAO basis set for Ni:
    #   Name: dzp
    #   File: /home/mikei/.pyenv/versions/cemea-env/lib/python3.10/site-packages/gpaw_data/setups/Ni.dzp.basis.gz
    #   Number of radial functions: 9
    #   Number of spherical harmonics: 27
    #     l=0, rc=8.5156 Bohr: 4s-sz confined orbital
    #     l=1, rc=2.9375 Bohr: 3p-sz confined orbital
    #     l=1, rc=12.4062 Bohr: 4p-sz confined orbital
    #     l=2, rc=4.6875 Bohr: 3d-sz confined orbital
    #     l=0, rc=4.9688 Bohr: 4s-dz split-valence wave
    #     l=1, rc=2.0781 Bohr: 3p-dz split-valence wave
    #     l=1, rc=7.5469 Bohr: 4p-dz split-valence wave
    #     l=2, rc=2.9375 Bohr: 3d-dz split-valence wave
    #     l=1, rc=8.5156 Bohr: p-type Gaussian polarization
    #   Number of RI-basis functions 0

  Mo:
    name: Molybdenum
    id: ac24daaf086600a00ce6d19a74574df1
    Z: 42.0
    valence: 14
    core: 28
    charge: 0.0
    file: /home/mikei/.pyenv/versions/cemea-env/lib/python3.10/site-packages/gpaw_data/setups/Mo.LDA.gz
    compensation charges: {type: gauss,
                           rc: 0.38,
                           lmax: 2}
    cutoffs: {filter: 2.16,
              core: 1.42}
    projectors:
      #              energy  rcut
      - 4s(2.00)   -64.384   1.238
      - 5s(1.00)    -4.319   1.238
      - 4p(6.00)   -38.595   1.296
      - 5p(0.00)    -1.161   1.296
      - 4d(5.00)    -3.933   1.296
      -  d          23.278   1.296
  
    # LCAO basis set for Mo:
    #   Name: dzp
    #   File: /home/mikei/.pyenv/versions/cemea-env/lib/python3.10/site-packages/gpaw_data/setups/Mo.dzp.basis.gz
    #   Number of radial functions: 11
    #   Number of spherical harmonics: 29
    #     l=0, rc=3.5469 Bohr: 4s-sz confined orbital
    #     l=0, rc=10.0469 Bohr: 5s-sz confined orbital
    #     l=1, rc=4.0781 Bohr: 4p-sz confined orbital
    #     l=1, rc=14.0938 Bohr: 5p-sz confined orbital
    #     l=2, rc=7.2031 Bohr: 4d-sz confined orbital
    #     l=0, rc=2.1250 Bohr: 4s-dz split-valence wave
    #     l=0, rc=6.1250 Bohr: 5s-dz split-valence wave
    #     l=1, rc=2.5469 Bohr: 4p-dz split-valence wave
    #     l=1, rc=8.7656 Bohr: 5p-dz split-valence wave
    #     l=2, rc=4.2344 Bohr: 4d-dz split-valence wave
    #     l=1, rc=10.0469 Bohr: p-type Gaussian polarization
    #   Number of RI-basis functions 0

  C:
    name: Carbon
    id: d60576a1f549371a163e72552ca58787
    Z: 6.0
    valence: 4
    core: 2
    charge: 0.0
    file: /home/mikei/.pyenv/versions/cemea-env/lib/python3.10/site-packages/gpaw_data/setups/C.LDA.gz
    compensation charges: {type: gauss,
                           rc: 0.20,
                           lmax: 2}
    cutoffs: {filter: 1.14,
              core: 1.14}
    projectors:
      #              energy  rcut
      - 2s(2.00)   -13.639   0.635
      - 2p(2.00)    -5.414   0.635
      -  s          13.573   0.635
      -  p          21.797   0.635
      -  d           0.000   0.635
  
    # LCAO basis set for C:
    #   Name: dzp
    #   File: /home/mikei/.pyenv/versions/cemea-env/lib/python3.10/site-packages/gpaw_data/setups/C.dzp.basis.gz
    #   Number of radial functions: 5
    #   Number of spherical harmonics: 13
    #     l=0, rc=5.5469 Bohr: 2s-sz confined orbital
    #     l=1, rc=6.6719 Bohr: 2p-sz confined orbital
    #     l=0, rc=3.0312 Bohr: 2s-dz split-valence wave
    #     l=1, rc=3.7500 Bohr: 2p-dz split-valence wave
    #     l=2, rc=6.6719 Bohr: d-type Gaussian polarization
    #   Number of RI-basis functions 0

  Ru:
    name: Ruthenium
    id: ee1c9ca112952e47c1459e90f4850566
    Z: 44.0
    valence: 16
    core: 28
    charge: 0.0
    file: /home/mikei/.pyenv/versions/cemea-env/lib/python3.10/site-packages/gpaw_data/setups/Ru.LDA.gz
    compensation charges: {type: gauss,
                           rc: 0.39,
                           lmax: 2}
    cutoffs: {filter: 2.16,
              core: 1.30}
    projectors:
      #              energy  rcut
      - 4s(2.00)   -76.385   1.281
      - 5s(1.00)    -4.507   1.281
      - 4p(6.00)   -46.536   1.286
      - 5p(0.00)    -1.033   1.286
      - 4d(7.00)    -5.402   1.254
      -  d          21.810   1.254
  
    # LCAO basis set for Ru:
    #   Name: dzp
    #   File: /home/mikei/.pyenv/versions/cemea-env/lib/python3.10/site-packages/gpaw_data/setups/Ru.dzp.basis.gz
    #   Number of radial functions: 11
    #   Number of spherical harmonics: 29
    #     l=0, rc=3.2969 Bohr: 4s-sz confined orbital
    #     l=0, rc=9.6875 Bohr: 5s-sz confined orbital
    #     l=1, rc=3.7656 Bohr: 4p-sz confined orbital
    #     l=1, rc=14.0938 Bohr: 5p-sz confined orbital
    #     l=2, rc=6.3281 Bohr: 4d-sz confined orbital
    #     l=0, rc=2.0781 Bohr: 4s-dz split-valence wave
    #     l=0, rc=5.8281 Bohr: 5s-dz split-valence wave
    #     l=1, rc=2.4219 Bohr: 4p-dz split-valence wave
    #     l=1, rc=8.7031 Bohr: 5p-dz split-valence wave
    #     l=2, rc=3.7500 Bohr: 4d-dz split-valence wave
    #     l=1, rc=9.6875 Bohr: p-type Gaussian polarization
    #   Number of RI-basis functions 0

Reference energy: -2863548.825589  # eV

Spin-paired calculation

Convergence criteria:
 Maximum [total energy] change in last 3 cyles: 1e-05 eV / valence electron
 Maximum integral of absolute [dens]ity change: 0.0001 electrons / valence electron
 Maximum integral of absolute [eigenst]ate change: 1e-05 eV^2 / valence electron
 Maximum number of scf [iter]ations: 333
 (Square brackets indicate name in SCF output, whereas a 'c' in
 the SCF output indicates the quantity has converged.)

Symmetries present (total): 2

  ( 1  0  0)  ( 0  1  0)
  ( 0  1  0)  ( 1  0  0)
  ( 0  0  1)  ( 0  0  1)

16 k-points: 4 x 4 x 1 Monkhorst-Pack grid
6 k-points in the irreducible part of the Brillouin zone
       k-points in crystal coordinates                weights
   0:     0.12500000   -0.12500000    0.00000000          2/16
   1:     0.12500000    0.12500000    0.00000000          2/16
   2:     0.37500000   -0.37500000    0.00000000          2/16
   3:     0.37500000   -0.12500000    0.00000000          4/16
   4:     0.37500000    0.12500000    0.00000000          4/16
   5:     0.37500000    0.37500000    0.00000000          2/16

Wave functions: LCAO
  Diagonalizer: Serial LAPACK
  Atomic Correction: dense with blas
  Data-type: complex
 

Occupation numbers: Fermi-Dirac:
  width: 0.1000  # eV
 

Eigensolver
   LCAO using direct dense diagonalizer 

Densities:
  Coarse grid: 36*36*128 grid
  Fine grid: 72*72*256 grid
  Total Charge: 0.000000 

Density mixing:
  Method: separate
  Backend: pulay
  Linear mixing parameter: 0.05
  old densities: 5
  Damping of long wavelength oscillations: 50 

Hamiltonian:
  XC and Coulomb potentials evaluated on a 72*72*256 grid
  Using the LDA Exchange-Correlation functional
  Interpolation: tri-quintic (5. degree polynomial)
  Poisson solver: FastPoissonSolver using
    Stencil: 6*3+1=19 point O(h^6) finite-difference Laplacian
    FFT axes: [np.int64(0), np.int64(1), np.int64(2)]
    FST axes: []
 

Memory estimate:
  Process memory now: 4595.48 MiB
  Calculator: 1009.36 MiB
    Density: 240.14 MiB
      Arrays: 32.91 MiB
      Localized functions: 194.58 MiB
      Mixer: 12.66 MiB
    Hamiltonian: 35.79 MiB
      Arrays: 21.52 MiB
      XC: 0.00 MiB
      Poisson: 0.00 MiB
      vbar: 14.28 MiB
    Wavefunctions: 733.43 MiB
      C [qnM]: 58.41 MiB
      S, T [2 x qmm]: 344.67 MiB
      P [aqMi]: 7.19 MiB
      BasisFunctions: 323.15 MiB
      Eigensolver: 0.00 MiB

Total number of cores used: 1

Number of atoms: 52
Number of atomic orbitals: 1372
Number of bands in calculation: 465
Number of valence electrons: 768
Bands to converge: occupied

... initialized

Initializing position-dependent things.

Density initialized from atomic densities
      .-----------------.  
     /|                 |  
    / |                 |  
   /  |                 |  
  /   |                 |  
 *    |                 |  
 |    |                 |  
 |    |                 |  
 |    |                 |  
 |    |                 |  
 |    |  Ru    Ru       |  
 |    |Ru Mo Ru     Mo  |  
 |    |                 |  
 |    |Mo C      Mo C   |  
 |  Mo|       Mo        |  
 |    |                 |  
 |    |C         C      |  
 Mo Ni|   NMo   Ni      |  
 | Ni | NNi   NNi   Ni  |  
 |    |                 |  
 Ni   NNi   NNi   Ni    |  
 |  NNi   NNi   NNi     |  
 | Ni | NNi   NNi   Ni  |  
 |    |                 |  
 Ni   NNi   NNi   Ni    |  
 |   Ni    Ni    Ni     |  
 |    |                 |  
 |    |                 |  
 |    |                 |  
 |    |                 |  
 |    |                 |  
 |    .-----------------.  
 |   /                 /   
 |  /                 /    
 | /                 /     
 |/                 /      
 *-----------------*       

Atomic positions and initial magnetic moments

Positions:
   0 Ni     1.244508    1.244508    8.000000    ( 0.0000,  0.0000,  0.0000)
   1 Ni     3.733524    1.244508    8.000000    ( 0.0000,  0.0000,  0.0000)
   2 Ni     6.222540    1.244508    8.000000    ( 0.0000,  0.0000,  0.0000)
   3 Ni     1.244508    3.733524    8.000000    ( 0.0000,  0.0000,  0.0000)
   4 Ni     3.733524    3.733524    8.000000    ( 0.0000,  0.0000,  0.0000)
   5 Ni     6.222540    3.733524    8.000000    ( 0.0000,  0.0000,  0.0000)
   6 Ni     1.244508    6.222540    8.000000    ( 0.0000,  0.0000,  0.0000)
   7 Ni     3.733524    6.222540    8.000000    ( 0.0000,  0.0000,  0.0000)
   8 Ni     6.222540    6.222540    8.000000    ( 0.0000,  0.0000,  0.0000)
   9 Ni     0.000000    0.000000    9.760000    ( 0.0000,  0.0000,  0.0000)
  10 Ni     2.489016    0.000000    9.760000    ( 0.0000,  0.0000,  0.0000)
  11 Ni     4.978032    0.000000    9.760000    ( 0.0000,  0.0000,  0.0000)
  12 Ni     0.000000    2.489016    9.760000    ( 0.0000,  0.0000,  0.0000)
  13 Ni     2.489016    2.489016    9.760000    ( 0.0000,  0.0000,  0.0000)
  14 Ni     4.978032    2.489016    9.760000    ( 0.0000,  0.0000,  0.0000)
  15 Ni     0.000000    4.978032    9.760000    ( 0.0000,  0.0000,  0.0000)
  16 Ni     2.489016    4.978032    9.760000    ( 0.0000,  0.0000,  0.0000)
  17 Ni     4.978032    4.978032    9.760000    ( 0.0000,  0.0000,  0.0000)
  18 Ni     1.244508    1.244508   11.520000    ( 0.0000,  0.0000,  0.0000)
  19 Ni     3.733524    1.244508   11.520000    ( 0.0000,  0.0000,  0.0000)
  20 Ni     6.222540    1.244508   11.520000    ( 0.0000,  0.0000,  0.0000)
  21 Ni     1.244508    3.733524   11.520000    ( 0.0000,  0.0000,  0.0000)
  22 Ni     3.733524    3.733524   11.520000    ( 0.0000,  0.0000,  0.0000)
  23 Ni     6.222540    3.733524   11.520000    ( 0.0000,  0.0000,  0.0000)
  24 Ni     1.244508    6.222540   11.520000    ( 0.0000,  0.0000,  0.0000)
  25 Ni     3.733524    6.222540   11.520000    ( 0.0000,  0.0000,  0.0000)
  26 Ni     6.222540    6.222540   11.520000    ( 0.0000,  0.0000,  0.0000)
  27 Ni     0.000000    0.000000   13.280000    ( 0.0000,  0.0000,  0.0000)
  28 Ni     2.489016    0.000000   13.280000    ( 0.0000,  0.0000,  0.0000)
  29 Ni     4.978032    0.000000   13.280000    ( 0.0000,  0.0000,  0.0000)
  30 Ni     0.000000    2.489016   13.280000    ( 0.0000,  0.0000,  0.0000)
  31 Ni     2.489016    2.489016   13.280000    ( 0.0000,  0.0000,  0.0000)
  32 Ni     4.978032    2.489016   13.280000    ( 0.0000,  0.0000,  0.0000)
  33 Ni     0.000000    4.978032   13.280000    ( 0.0000,  0.0000,  0.0000)
  34 Ni     2.489016    4.978032   13.280000    ( 0.0000,  0.0000,  0.0000)
  35 Ni     4.978032    4.978032   13.280000    ( 0.0000,  0.0000,  0.0000)
  36 Mo     0.000000    0.000000   15.480000    ( 0.0000,  0.0000,  0.0000)
  37 Mo     2.060000    2.060000   17.540000    ( 0.0000,  0.0000,  0.0000)
  38 C      2.060000    2.060000   15.480000    ( 0.0000,  0.0000,  0.0000)
  39 Mo     0.000000    4.120000   15.480000    ( 0.0000,  0.0000,  0.0000)
  40 Mo     2.060000    6.180000   17.540000    ( 0.0000,  0.0000,  0.0000)
  41 C      2.060000    6.180000   15.480000    ( 0.0000,  0.0000,  0.0000)
  42 Mo     4.120000    0.000000   15.480000    ( 0.0000,  0.0000,  0.0000)
  43 Mo     6.180000    2.060000   17.540000    ( 0.0000,  0.0000,  0.0000)
  44 C      6.180000    2.060000   15.480000    ( 0.0000,  0.0000,  0.0000)
  45 Mo     4.120000    4.120000   15.480000    ( 0.0000,  0.0000,  0.0000)
  46 Mo     6.180000    6.180000   17.540000    ( 0.0000,  0.0000,  0.0000)
  47 C      6.180000    6.180000   15.480000    ( 0.0000,  0.0000,  0.0000)
  48 Ru     1.991786    1.991786   19.340000    ( 0.0000,  0.0000,  0.0000)
  49 Ru     1.991786    4.391786   19.340000    ( 0.0000,  0.0000,  0.0000)
  50 Ru     4.391786    1.991786   19.340000    ( 0.0000,  0.0000,  0.0000)
  51 Ru     4.391786    4.391786   19.340000    ( 0.0000,  0.0000,  0.0000)

Unit cell:
           periodic     x           y           z      points  spacing
  1. axis:    yes    7.467048    0.000000    0.000000    36     0.2074
  2. axis:    yes    0.000000    7.467048    0.000000    36     0.2074
  3. axis:    yes    0.000000    0.000000   25.540000   128     0.1995

  Lengths:   7.467048   7.467048  25.540000
  Angles:   90.000000  90.000000  90.000000

Effective grid spacing dv^(1/3) = 0.2048

     iter     time        total  log10-change:
                         energy   eigst   dens
iter:   1 19:13:32 -1196.321590        c
iter:   2 19:14:57 -5879.093614        c -0.87
iter:   3 19:16:23  -612.852230        c -0.38
iter:   4 19:17:50  -440.056481        c -1.22
iter:   5 19:19:17  -422.759909        c -1.44
iter:   6 19:20:44  -451.909549        c -1.48
iter:   7 19:22:08  -419.454980        c -1.43
iter:   8 19:23:34  -444.485772        c -1.58
iter:   9 19:24:58  -426.930351        c -1.38
iter:  10 19:26:22  -414.052455        c -1.58
iter:  11 19:27:45  -436.835763        c -1.72
iter:  12 19:29:13  -445.610447        c -1.57
iter:  13 19:30:36  -435.357634        c -1.56
iter:  14 19:32:06  -424.967789        c -1.65
iter:  15 19:33:29  -426.727767        c -1.59
iter:  16 19:34:57  -422.434794        c -1.68
iter:  17 19:36:25  -414.499719        c -1.79
iter:  18 19:37:54  -413.857345        c -1.98
iter:  19 19:39:20  -410.473994        c -1.82
iter:  20 19:40:45  -408.136773        c -1.86
iter:  21 19:42:15  -408.307492        c -2.01
iter:  22 19:43:38  -406.489542        c -2.04
iter:  23 19:45:04  -406.067430        c -2.17
iter:  24 19:46:30  -405.592711        c -2.15
iter:  25 19:47:55  -406.929271        c -2.36
iter:  26 19:49:19  -405.732610        c -2.21
iter:  27 19:50:44  -406.981617        c -2.24
iter:  28 19:52:13  -405.769134        c -2.12
iter:  29 19:53:36  -405.632286        c -2.24
iter:  30 19:55:05  -405.828520        c -2.38
iter:  31 19:56:29  -405.386083        c -2.31
iter:  32 19:57:53  -405.219608        c -2.44
iter:  33 19:59:16  -405.801301        c -2.50
iter:  34 20:00:40  -407.849431        c -2.32
iter:  35 20:02:05  -405.362117        c -1.97
iter:  36 20:03:30  -405.469261        c -2.58
iter:  37 20:04:55  -405.173784        c -2.55
iter:  38 20:06:18  -405.161474        c -2.63
iter:  39 20:07:42  -405.138089        c -2.64
iter:  40 20:09:09  -405.247712        c -2.67
iter:  41 20:10:36  -405.077772        c -2.55
iter:  42 20:12:02  -405.212444        c -2.79
iter:  43 20:13:27  -405.032200        c -2.61
iter:  44 20:14:51  -405.030754        c -2.99
iter:  45 20:16:15  -405.079385        c -3.02
iter:  46 20:17:42  -405.045014        c -2.84
iter:  47 20:19:06  -405.013186        c -2.91
iter:  48 20:20:30  -405.026707        c -3.14
iter:  49 20:21:53  -405.000407        c -3.10
iter:  50 20:23:19  -405.043905        c -3.18
iter:  51 20:24:42  -405.054188        c -3.06
iter:  52 20:26:06  -405.007628        c -2.99
iter:  53 20:27:30  -405.011086        c -3.24
iter:  54 20:28:55  -405.051275        c -3.27
iter:  55 20:30:19  -405.029926        c -2.98
iter:  56 20:31:44  -405.012792        c -3.14
iter:  57 20:33:10  -405.029169        c -3.30
iter:  58 20:34:34  -405.040084        c -3.14
iter:  59 20:36:00  -405.017295        c -3.10
iter:  60 20:37:29  -405.019375        c -3.27
iter:  61 20:38:56  -405.007021        c -3.14
iter:  62 20:40:21  -405.017128        c -3.33
iter:  63 20:41:47  -405.023935        c -3.36
iter:  64 20:43:15  -405.006845        c -3.27
iter:  65 20:44:39  -405.006140        c -3.41
iter:  66 20:46:04  -405.011587c       c -3.58
iter:  67 20:47:27  -405.002513        c -3.49
iter:  68 20:48:55  -405.004533        c -3.51
iter:  69 20:50:19  -405.003377c       c -3.58
iter:  70 20:51:46  -405.009378c       c -3.71
iter:  71 20:53:10  -405.025881        c -3.46
iter:  72 20:54:35  -405.004396        c -3.26
iter:  73 20:56:00  -405.005347        c -3.82
iter:  74 20:57:23  -405.008005c       c -3.95
iter:  75 20:58:49  -405.005198c       c -3.68
iter:  76 21:00:16  -405.005029c       c -4.01c

Converged after 76 iterations.

Dipole moment: (-8.373650, -8.373650, 0.329720) |e|*Ang

Energy contributions relative to reference atoms: (reference = -2863548.825589)

Kinetic:        +80.663166
Potential:      -71.404171
External:        +0.000000
XC:            -410.692166
Entropy (-ST):   -4.012762
Local:           -1.565477
SIC:             +0.000000
--------------------------
Free energy:   -407.011410
Extrapolated:  -405.005029

Showing only first 2 kpts
 Kpt  Band  Eigenvalues  Occupancy
  0   382      1.16780    1.27186
  0   383      1.18362    1.19719
  0   384      1.19481    1.14286
  0   385      1.20041    1.11534

  1   382      1.16862    1.26808
  1   383      1.18051    1.21210
  1   384      1.18747    1.17861
  1   385      1.19210    1.15611


Fermi level: 1.22358

No gap
No difference between direct/indirect transitions
Timing:                              incl.     excl.
-----------------------------------------------------------
Basic WFS set positions:             0.001     0.001   0.0% |
Basis functions set positions:       0.196     0.196   0.0% |
LCAO WFS Initialize:                 0.451     0.120   0.0% |
 Hamiltonian:                        0.331     0.000   0.0% |
  Atomic:                            0.170     0.002   0.0% |
   XC Correction:                    0.168     0.168   0.0% |
  Calculate atomic Hamiltonians:     0.027     0.027   0.0% |
  Communicate:                       0.000     0.000   0.0% |
  Hartree integrate/restrict:        0.006     0.006   0.0% |
  Initialize Hamiltonian:            0.000     0.000   0.0% |
  Poisson:                           0.081     0.007   0.0% |
   Communicate from 1D:              0.008     0.008   0.0% |
   Communicate from 2D:              0.006     0.006   0.0% |
   Communicate to 1D:                0.011     0.011   0.0% |
   Communicate to 2D:                0.011     0.011   0.0% |
   FFT 1D:                           0.007     0.007   0.0% |
   FFT 2D:                           0.031     0.031   0.0% |
  XC 3D grid:                        0.046     0.046   0.0% |
  vbar:                              0.001     0.001   0.0% |
P tci:                               4.531     4.531   0.1% |
SCF-cycle:                        6426.631     0.195   0.0% |
 Density:                         4687.588     0.001   0.0% |
  Atomic density matrices:           1.230     1.230   0.0% |
  Mix:                               9.409     9.409   0.1% |
  Multipole moments:                 0.022     0.022   0.0% |
  Normalize:                         0.009     0.009   0.0% |
  Pseudo density:                 4676.917     0.319   0.0% |
   Calculate density matrix:        12.068    12.068   0.2% |
   Construct density:             4664.233  4664.233  72.4% |----------------------------|
   Symmetrize density:               0.298     0.298   0.0% |
 Hamiltonian:                       26.895     0.004   0.0% |
  Atomic:                           12.734     0.144   0.0% |
   XC Correction:                   12.590    12.590   0.2% |
  Calculate atomic Hamiltonians:     2.077     2.077   0.0% |
  Communicate:                       0.000     0.000   0.0% |
  Hartree integrate/restrict:        0.531     0.531   0.0% |
  Poisson:                           5.741     0.467   0.0% |
   Communicate from 1D:              0.637     0.637   0.0% |
   Communicate from 2D:              0.477     0.477   0.0% |
   Communicate to 1D:                0.705     0.705   0.0% |
   Communicate to 2D:                0.774     0.774   0.0% |
   FFT 1D:                           0.624     0.624   0.0% |
   FFT 2D:                           2.057     2.057   0.0% |
  XC 3D grid:                        4.883     4.883   0.1% |
  vbar:                              0.925     0.925   0.0% |
 LCAO eigensolver:                1711.955     2.026   0.0% |
  Calculate projections:            62.624    62.624   1.0% |
  DenseAtomicCorrection:           222.349   222.349   3.5% ||
  Distribute overlap matrix:         3.504     3.504   0.1% |
  Orbital Layouts:                 357.907   357.907   5.6% |-|
  Potential matrix:                977.930   977.930  15.2% |-----|
  Sum over cells:                   85.614    85.614   1.3% ||
ST tci:                              2.222     2.222   0.0% |
Set symmetry:                        0.000     0.000   0.0% |
TCI: Evaluate splines:               0.636     0.636   0.0% |
mktci:                               0.028     0.028   0.0% |
Other:                               5.898     5.898   0.1% |
-----------------------------------------------------------
Total:                                      6440.596 100.0%

Memory usage: 4.49 GiB
Date: Mon Feb 23 21:00:16 2026
