
  ___ ___ ___ _ _ _  
 |   |   |_  | | | | 
 | | | | | . | | | | 
 |__ |  _|___|_____|  25.7.0
 |___|_|             

User:   mikei@Z790-AORUS-ELITE-AX
Date:   Mon Feb 23 21:00:16 2026
Arch:   x86_64
Pid:    89048
CWD:    /home/mikei/Dokumenty/code/cemea/ocx
Python: 3.10.16
gpaw:   /home/mikei/.pyenv/versions/cemea-env/lib/python3.10/site-packages/gpaw
_gpaw:  /home/mikei/.pyenv/versions/cemea-env/lib/python3.10/site-packages/
        _gpaw.cpython-310-x86_64-linux-gnu.so
ase:    /home/mikei/.pyenv/versions/cemea-env/lib/python3.10/site-packages/ase (version 3.27.0)
numpy:  /home/mikei/.pyenv/versions/cemea-env/lib/python3.10/site-packages/numpy (version 2.2.6)
scipy:  /home/mikei/.pyenv/versions/cemea-env/lib/python3.10/site-packages/scipy (version 1.15.3)
libxc:  2.x.y
units:  Angstrom and eV
cores: 1
OpenMP: False
OMP_NUM_THREADS: 1

Input parameters:
  basis: dzp
  convergence: {density: 0.0001,
                eigenstates: 1e-05,
                energy: 1e-05}
  kpts: [4 4 1]
  mode: lcao

System changes: positions, numbers, cell, pbc, initial_charges, initial_magmoms 

Initialize ...

species:
  Ni:
    name: Nickel
    id: 1802175e8de9ea26d9f4394ec1a7d564
    Z: 28.0
    valence: 16
    core: 12
    charge: 0.0
    file: /home/mikei/.pyenv/versions/cemea-env/lib/python3.10/site-packages/gpaw_data/setups/Ni.LDA.gz
    compensation charges: {type: gauss,
                           rc: 0.36,
                           lmax: 2}
    cutoffs: {filter: 2.14,
              core: 1.98}
    projectors:
      #              energy  rcut
      - 4s(2.00)    -5.858   1.164
      - 3p(6.00)   -71.266   1.207
      - 4p(0.00)    -1.338   1.207
      - 3d(8.00)    -9.141   1.138
      -  s          21.353   1.164
      -  d          18.071   1.138
  
    # LCAO basis set for Ni:
    #   Name: dzp
    #   File: /home/mikei/.pyenv/versions/cemea-env/lib/python3.10/site-packages/gpaw_data/setups/Ni.dzp.basis.gz
    #   Number of radial functions: 9
    #   Number of spherical harmonics: 27
    #     l=0, rc=8.5156 Bohr: 4s-sz confined orbital
    #     l=1, rc=2.9375 Bohr: 3p-sz confined orbital
    #     l=1, rc=12.4062 Bohr: 4p-sz confined orbital
    #     l=2, rc=4.6875 Bohr: 3d-sz confined orbital
    #     l=0, rc=4.9688 Bohr: 4s-dz split-valence wave
    #     l=1, rc=2.0781 Bohr: 3p-dz split-valence wave
    #     l=1, rc=7.5469 Bohr: 4p-dz split-valence wave
    #     l=2, rc=2.9375 Bohr: 3d-dz split-valence wave
    #     l=1, rc=8.5156 Bohr: p-type Gaussian polarization
    #   Number of RI-basis functions 0

  Mo:
    name: Molybdenum
    id: ac24daaf086600a00ce6d19a74574df1
    Z: 42.0
    valence: 14
    core: 28
    charge: 0.0
    file: /home/mikei/.pyenv/versions/cemea-env/lib/python3.10/site-packages/gpaw_data/setups/Mo.LDA.gz
    compensation charges: {type: gauss,
                           rc: 0.38,
                           lmax: 2}
    cutoffs: {filter: 2.16,
              core: 1.42}
    projectors:
      #              energy  rcut
      - 4s(2.00)   -64.384   1.238
      - 5s(1.00)    -4.319   1.238
      - 4p(6.00)   -38.595   1.296
      - 5p(0.00)    -1.161   1.296
      - 4d(5.00)    -3.933   1.296
      -  d          23.278   1.296
  
    # LCAO basis set for Mo:
    #   Name: dzp
    #   File: /home/mikei/.pyenv/versions/cemea-env/lib/python3.10/site-packages/gpaw_data/setups/Mo.dzp.basis.gz
    #   Number of radial functions: 11
    #   Number of spherical harmonics: 29
    #     l=0, rc=3.5469 Bohr: 4s-sz confined orbital
    #     l=0, rc=10.0469 Bohr: 5s-sz confined orbital
    #     l=1, rc=4.0781 Bohr: 4p-sz confined orbital
    #     l=1, rc=14.0938 Bohr: 5p-sz confined orbital
    #     l=2, rc=7.2031 Bohr: 4d-sz confined orbital
    #     l=0, rc=2.1250 Bohr: 4s-dz split-valence wave
    #     l=0, rc=6.1250 Bohr: 5s-dz split-valence wave
    #     l=1, rc=2.5469 Bohr: 4p-dz split-valence wave
    #     l=1, rc=8.7656 Bohr: 5p-dz split-valence wave
    #     l=2, rc=4.2344 Bohr: 4d-dz split-valence wave
    #     l=1, rc=10.0469 Bohr: p-type Gaussian polarization
    #   Number of RI-basis functions 0

  C:
    name: Carbon
    id: d60576a1f549371a163e72552ca58787
    Z: 6.0
    valence: 4
    core: 2
    charge: 0.0
    file: /home/mikei/.pyenv/versions/cemea-env/lib/python3.10/site-packages/gpaw_data/setups/C.LDA.gz
    compensation charges: {type: gauss,
                           rc: 0.20,
                           lmax: 2}
    cutoffs: {filter: 1.14,
              core: 1.14}
    projectors:
      #              energy  rcut
      - 2s(2.00)   -13.639   0.635
      - 2p(2.00)    -5.414   0.635
      -  s          13.573   0.635
      -  p          21.797   0.635
      -  d           0.000   0.635
  
    # LCAO basis set for C:
    #   Name: dzp
    #   File: /home/mikei/.pyenv/versions/cemea-env/lib/python3.10/site-packages/gpaw_data/setups/C.dzp.basis.gz
    #   Number of radial functions: 5
    #   Number of spherical harmonics: 13
    #     l=0, rc=5.5469 Bohr: 2s-sz confined orbital
    #     l=1, rc=6.6719 Bohr: 2p-sz confined orbital
    #     l=0, rc=3.0312 Bohr: 2s-dz split-valence wave
    #     l=1, rc=3.7500 Bohr: 2p-dz split-valence wave
    #     l=2, rc=6.6719 Bohr: d-type Gaussian polarization
    #   Number of RI-basis functions 0

  Ru:
    name: Ruthenium
    id: ee1c9ca112952e47c1459e90f4850566
    Z: 44.0
    valence: 16
    core: 28
    charge: 0.0
    file: /home/mikei/.pyenv/versions/cemea-env/lib/python3.10/site-packages/gpaw_data/setups/Ru.LDA.gz
    compensation charges: {type: gauss,
                           rc: 0.39,
                           lmax: 2}
    cutoffs: {filter: 2.16,
              core: 1.30}
    projectors:
      #              energy  rcut
      - 4s(2.00)   -76.385   1.281
      - 5s(1.00)    -4.507   1.281
      - 4p(6.00)   -46.536   1.286
      - 5p(0.00)    -1.033   1.286
      - 4d(7.00)    -5.402   1.254
      -  d          21.810   1.254
  
    # LCAO basis set for Ru:
    #   Name: dzp
    #   File: /home/mikei/.pyenv/versions/cemea-env/lib/python3.10/site-packages/gpaw_data/setups/Ru.dzp.basis.gz
    #   Number of radial functions: 11
    #   Number of spherical harmonics: 29
    #     l=0, rc=3.2969 Bohr: 4s-sz confined orbital
    #     l=0, rc=9.6875 Bohr: 5s-sz confined orbital
    #     l=1, rc=3.7656 Bohr: 4p-sz confined orbital
    #     l=1, rc=14.0938 Bohr: 5p-sz confined orbital
    #     l=2, rc=6.3281 Bohr: 4d-sz confined orbital
    #     l=0, rc=2.0781 Bohr: 4s-dz split-valence wave
    #     l=0, rc=5.8281 Bohr: 5s-dz split-valence wave
    #     l=1, rc=2.4219 Bohr: 4p-dz split-valence wave
    #     l=1, rc=8.7031 Bohr: 5p-dz split-valence wave
    #     l=2, rc=3.7500 Bohr: 4d-dz split-valence wave
    #     l=1, rc=9.6875 Bohr: p-type Gaussian polarization
    #   Number of RI-basis functions 0

  H:
    name: Hydrogen
    id: 4766778ce56282eaa64abeb28b7c1de3
    Z: 1.0
    valence: 1
    core: 0
    charge: 0.0
    file: /home/mikei/.pyenv/versions/cemea-env/lib/python3.10/site-packages/gpaw_data/setups/H.LDA.gz
    compensation charges: {type: gauss,
                           rc: 0.15,
                           lmax: 2}
    cutoffs: {filter: 0.85,
              core: 0.53}
    projectors:
      #              energy  rcut
      - 1s(1.00)    -6.353   0.476
      -  s          20.858   0.476
      -  p           0.000   0.476
  
    # LCAO basis set for H:
    #   Name: dzp
    #   File: /home/mikei/.pyenv/versions/cemea-env/lib/python3.10/site-packages/gpaw_data/setups/H.dzp.basis.gz
    #   Number of radial functions: 3
    #   Number of spherical harmonics: 5
    #     l=0, rc=6.4219 Bohr: 1s-sz confined orbital
    #     l=0, rc=3.6094 Bohr: 1s-dz split-valence wave
    #     l=1, rc=6.4219 Bohr: p-type Gaussian polarization
    #   Number of RI-basis functions 0

Reference energy: -2863560.954547  # eV

Spin-paired calculation

Convergence criteria:
 Maximum [total energy] change in last 3 cyles: 1e-05 eV / valence electron
 Maximum integral of absolute [dens]ity change: 0.0001 electrons / valence electron
 Maximum integral of absolute [eigenst]ate change: 1e-05 eV^2 / valence electron
 Maximum number of scf [iter]ations: 333
 (Square brackets indicate name in SCF output, whereas a 'c' in
 the SCF output indicates the quantity has converged.)

Symmetries present (total): 2

  ( 1  0  0)  ( 0  1  0)
  ( 0  1  0)  ( 1  0  0)
  ( 0  0  1)  ( 0  0  1)

16 k-points: 4 x 4 x 1 Monkhorst-Pack grid
6 k-points in the irreducible part of the Brillouin zone
       k-points in crystal coordinates                weights
   0:     0.12500000   -0.12500000    0.00000000          2/16
   1:     0.12500000    0.12500000    0.00000000          2/16
   2:     0.37500000   -0.37500000    0.00000000          2/16
   3:     0.37500000   -0.12500000    0.00000000          4/16
   4:     0.37500000    0.12500000    0.00000000          4/16
   5:     0.37500000    0.37500000    0.00000000          2/16

Wave functions: LCAO
  Diagonalizer: Serial LAPACK
  Atomic Correction: dense with blas
  Data-type: complex
 

Occupation numbers: Fermi-Dirac:
  width: 0.1000  # eV
 

Eigensolver
   LCAO using direct dense diagonalizer 

Densities:
  Coarse grid: 36*36*128 grid
  Fine grid: 72*72*256 grid
  Total Charge: 0.000000 

Density mixing:
  Method: separate
  Backend: pulay
  Linear mixing parameter: 0.05
  old densities: 5
  Damping of long wavelength oscillations: 50 

Hamiltonian:
  XC and Coulomb potentials evaluated on a 72*72*256 grid
  Using the LDA Exchange-Correlation functional
  Interpolation: tri-quintic (5. degree polynomial)
  Poisson solver: FastPoissonSolver using
    Stencil: 6*3+1=19 point O(h^6) finite-difference Laplacian
    FFT axes: [np.int64(0), np.int64(1), np.int64(2)]
    FST axes: []
 

Memory estimate:
  Process memory now: 4595.48 MiB
  Calculator: 1013.14 MiB
    Density: 240.38 MiB
      Arrays: 32.91 MiB
      Localized functions: 194.81 MiB
      Mixer: 12.66 MiB
    Hamiltonian: 35.81 MiB
      Arrays: 21.52 MiB
      XC: 0.00 MiB
      Poisson: 0.00 MiB
      vbar: 14.30 MiB
    Wavefunctions: 736.96 MiB
      C [qnM]: 58.75 MiB
      S, T [2 x qmm]: 347.19 MiB
      P [aqMi]: 7.26 MiB
      BasisFunctions: 323.76 MiB
      Eigensolver: 0.00 MiB

Total number of cores used: 1

Number of atoms: 53
Number of atomic orbitals: 1377
Number of bands in calculation: 466
Number of valence electrons: 769
Bands to converge: occupied

... initialized

Initializing position-dependent things.

Density initialized from atomic densities
      .-----------------.  
     /|                 |  
    / |                 |  
   /  |                 |  
  /   |                 |  
 *    |                 |  
 |    |                 |  
 |    |                 |  
 |    |                 |  
 |    |    H            |  
 |    |  Ru    Ru       |  
 |    |Ru Mo Ru     Mo  |  
 |    |                 |  
 |    |Mo C      Mo C   |  
 |  Mo|       Mo        |  
 |    |                 |  
 |    |C         C      |  
 Mo Ni|   NMo   Ni      |  
 | Ni | NNi   NNi   Ni  |  
 |    |                 |  
 Ni   NNi   NNi   Ni    |  
 |  NNi   NNi   NNi     |  
 | Ni | NNi   NNi   Ni  |  
 |    |                 |  
 Ni   NNi   NNi   Ni    |  
 |   Ni    Ni    Ni     |  
 |    |                 |  
 |    |                 |  
 |    |                 |  
 |    |                 |  
 |    |                 |  
 |    .-----------------.  
 |   /                 /   
 |  /                 /    
 | /                 /     
 |/                 /      
 *-----------------*       

Atomic positions and initial magnetic moments

Positions:
   0 Ni     1.244508    1.244508    8.000000    ( 0.0000,  0.0000,  0.0000)
   1 Ni     3.733524    1.244508    8.000000    ( 0.0000,  0.0000,  0.0000)
   2 Ni     6.222540    1.244508    8.000000    ( 0.0000,  0.0000,  0.0000)
   3 Ni     1.244508    3.733524    8.000000    ( 0.0000,  0.0000,  0.0000)
   4 Ni     3.733524    3.733524    8.000000    ( 0.0000,  0.0000,  0.0000)
   5 Ni     6.222540    3.733524    8.000000    ( 0.0000,  0.0000,  0.0000)
   6 Ni     1.244508    6.222540    8.000000    ( 0.0000,  0.0000,  0.0000)
   7 Ni     3.733524    6.222540    8.000000    ( 0.0000,  0.0000,  0.0000)
   8 Ni     6.222540    6.222540    8.000000    ( 0.0000,  0.0000,  0.0000)
   9 Ni     0.000000    0.000000    9.760000    ( 0.0000,  0.0000,  0.0000)
  10 Ni     2.489016    0.000000    9.760000    ( 0.0000,  0.0000,  0.0000)
  11 Ni     4.978032    0.000000    9.760000    ( 0.0000,  0.0000,  0.0000)
  12 Ni     0.000000    2.489016    9.760000    ( 0.0000,  0.0000,  0.0000)
  13 Ni     2.489016    2.489016    9.760000    ( 0.0000,  0.0000,  0.0000)
  14 Ni     4.978032    2.489016    9.760000    ( 0.0000,  0.0000,  0.0000)
  15 Ni     0.000000    4.978032    9.760000    ( 0.0000,  0.0000,  0.0000)
  16 Ni     2.489016    4.978032    9.760000    ( 0.0000,  0.0000,  0.0000)
  17 Ni     4.978032    4.978032    9.760000    ( 0.0000,  0.0000,  0.0000)
  18 Ni     1.244508    1.244508   11.520000    ( 0.0000,  0.0000,  0.0000)
  19 Ni     3.733524    1.244508   11.520000    ( 0.0000,  0.0000,  0.0000)
  20 Ni     6.222540    1.244508   11.520000    ( 0.0000,  0.0000,  0.0000)
  21 Ni     1.244508    3.733524   11.520000    ( 0.0000,  0.0000,  0.0000)
  22 Ni     3.733524    3.733524   11.520000    ( 0.0000,  0.0000,  0.0000)
  23 Ni     6.222540    3.733524   11.520000    ( 0.0000,  0.0000,  0.0000)
  24 Ni     1.244508    6.222540   11.520000    ( 0.0000,  0.0000,  0.0000)
  25 Ni     3.733524    6.222540   11.520000    ( 0.0000,  0.0000,  0.0000)
  26 Ni     6.222540    6.222540   11.520000    ( 0.0000,  0.0000,  0.0000)
  27 Ni     0.000000    0.000000   13.280000    ( 0.0000,  0.0000,  0.0000)
  28 Ni     2.489016    0.000000   13.280000    ( 0.0000,  0.0000,  0.0000)
  29 Ni     4.978032    0.000000   13.280000    ( 0.0000,  0.0000,  0.0000)
  30 Ni     0.000000    2.489016   13.280000    ( 0.0000,  0.0000,  0.0000)
  31 Ni     2.489016    2.489016   13.280000    ( 0.0000,  0.0000,  0.0000)
  32 Ni     4.978032    2.489016   13.280000    ( 0.0000,  0.0000,  0.0000)
  33 Ni     0.000000    4.978032   13.280000    ( 0.0000,  0.0000,  0.0000)
  34 Ni     2.489016    4.978032   13.280000    ( 0.0000,  0.0000,  0.0000)
  35 Ni     4.978032    4.978032   13.280000    ( 0.0000,  0.0000,  0.0000)
  36 Mo     0.000000    0.000000   15.480000    ( 0.0000,  0.0000,  0.0000)
  37 Mo     2.060000    2.060000   17.540000    ( 0.0000,  0.0000,  0.0000)
  38 C      2.060000    2.060000   15.480000    ( 0.0000,  0.0000,  0.0000)
  39 Mo     0.000000    4.120000   15.480000    ( 0.0000,  0.0000,  0.0000)
  40 Mo     2.060000    6.180000   17.540000    ( 0.0000,  0.0000,  0.0000)
  41 C      2.060000    6.180000   15.480000    ( 0.0000,  0.0000,  0.0000)
  42 Mo     4.120000    0.000000   15.480000    ( 0.0000,  0.0000,  0.0000)
  43 Mo     6.180000    2.060000   17.540000    ( 0.0000,  0.0000,  0.0000)
  44 C      6.180000    2.060000   15.480000    ( 0.0000,  0.0000,  0.0000)
  45 Mo     4.120000    4.120000   15.480000    ( 0.0000,  0.0000,  0.0000)
  46 Mo     6.180000    6.180000   17.540000    ( 0.0000,  0.0000,  0.0000)
  47 C      6.180000    6.180000   15.480000    ( 0.0000,  0.0000,  0.0000)
  48 Ru     1.991786    1.991786   19.340000    ( 0.0000,  0.0000,  0.0000)
  49 Ru     1.991786    4.391786   19.340000    ( 0.0000,  0.0000,  0.0000)
  50 Ru     4.391786    1.991786   19.340000    ( 0.0000,  0.0000,  0.0000)
  51 Ru     4.391786    4.391786   19.340000    ( 0.0000,  0.0000,  0.0000)
  52 H      3.191786    3.191786   20.840000    ( 0.0000,  0.0000,  0.0000)

Unit cell:
           periodic     x           y           z      points  spacing
  1. axis:    yes    7.467048    0.000000    0.000000    36     0.2074
  2. axis:    yes    0.000000    7.467048    0.000000    36     0.2074
  3. axis:    yes    0.000000    0.000000   25.540000   128     0.1995

  Lengths:   7.467048   7.467048  25.540000
  Angles:   90.000000  90.000000  90.000000

Effective grid spacing dv^(1/3) = 0.2048

     iter     time        total  log10-change:
                         energy   eigst   dens
iter:   1 21:00:54 -1215.388918        c
iter:   2 21:02:27 -5747.945190        c -0.88
iter:   3 21:03:51  -622.536166        c -0.38
iter:   4 21:05:17  -440.977466        c -1.21
iter:   5 21:06:43  -426.069574        c -1.44
iter:   6 21:08:08  -431.280044        c -1.49
iter:   7 21:09:32  -478.585208        c -1.46
iter:   8 21:10:56  -490.802006        c -1.33
iter:   9 21:12:21  -455.991283        c -1.42
iter:  10 21:13:47  -427.389131        c -1.52
iter:  11 21:15:15  -432.807500        c -1.66
iter:  12 21:16:42  -416.660531        c -1.65
iter:  13 21:18:12  -467.486940        c -1.74
iter:  14 21:19:38  -416.256162        c -1.35
iter:  15 21:21:06  -431.235102        c -1.81
iter:  16 21:22:32  -428.161187        c -1.63
iter:  17 21:24:00  -418.414278        c -1.75
iter:  18 21:25:27  -418.943535        c -1.88
iter:  19 21:26:53  -445.459169        c -1.76
iter:  20 21:28:17  -419.634708        c -1.51
iter:  21 21:29:45  -417.843605        c -1.77
iter:  22 21:31:10  -415.154477        c -1.89
iter:  23 21:32:35  -411.309557        c -1.86
iter:  24 21:34:01  -412.411896        c -2.16
iter:  25 21:35:27  -442.112920        c -1.96
iter:  26 21:36:59  -409.914953        c -1.48
iter:  27 21:38:24  -409.067392        c -2.23
iter:  28 21:39:48  -410.374707        c -2.39
iter:  29 21:41:12  -409.134685        c -2.22
iter:  30 21:42:39  -408.971762        c -2.33
iter:  31 21:44:03  -408.643261        c -2.41
iter:  32 21:45:29  -408.844037        c -2.64
iter:  33 21:46:54  -408.534066        c -2.58
iter:  34 21:48:22  -408.482125        c -2.68
iter:  35 21:49:48  -408.472186        c -2.67
iter:  36 21:51:12  -408.756264        c -2.85
iter:  37 21:52:38  -408.478447        c -2.55
iter:  38 21:54:04  -409.097733        c -2.73
iter:  39 21:55:29  -408.455277        c -2.29
iter:  40 21:57:00  -408.453995        c -2.83
iter:  41 21:58:28  -408.441655        c -2.92
iter:  42 21:59:52  -408.438876        c -2.90
iter:  43 22:01:19  -409.362218        c -2.95
iter:  44 22:02:45  -408.536784        c -2.36
iter:  45 22:04:11  -408.446644        c -2.54
iter:  46 22:05:36  -408.401484        c -3.07
iter:  47 22:07:03  -408.399432        c -3.08
iter:  48 22:08:29  -408.385685        c -3.13
iter:  49 22:09:56  -408.387109        c -3.15
iter:  50 22:11:20  -408.491775        c -3.08
iter:  51 22:12:44  -408.398122        c -2.84
iter:  52 22:14:10  -408.386903        c -3.31
iter:  53 22:15:35  -408.531171        c -3.34
iter:  54 22:17:03  -408.388971        c -2.71
iter:  55 22:18:27  -408.390383        c -3.45
iter:  56 22:19:52  -408.382172        c -3.57
iter:  57 22:21:17  -408.387847        c -3.51
iter:  58 22:22:41  -408.388166c       c -3.57
iter:  59 22:24:05  -408.401909        c -3.54
iter:  60 22:25:34  -408.382901        c -3.36
iter:  61 22:27:05  -408.380950        c -3.47
iter:  62 22:28:34  -408.382682c       c -3.63
iter:  63 22:30:00  -408.382219c       c -3.92
iter:  64 22:31:26  -408.383577c       c -3.48
iter:  65 22:32:55  -408.380318c       c -3.94
iter:  66 22:34:21  -408.385348c       c -3.78
iter:  67 22:35:51  -408.384982c       c -4.03c

Converged after 67 iterations.

Dipole moment: (-8.341860, -8.341860, 0.258104) |e|*Ang

Energy contributions relative to reference atoms: (reference = -2863560.954547)

Kinetic:        +88.501086
Potential:      -79.345291
External:        +0.000000
XC:            -413.721106
Entropy (-ST):   -4.031803
Local:           -1.803769
SIC:             +0.000000
--------------------------
Free energy:   -410.400884
Extrapolated:  -408.384982

Showing only first 2 kpts
 Kpt  Band  Eigenvalues  Occupancy
  0   382      1.15330    1.27748
  0   383      1.15457    1.27161
  0   384      1.17322    1.18327
  0   385      1.18347    1.13332

  1   382      1.15488    1.27021
  1   383      1.15736    1.25867
  1   384      1.17485    1.17538
  1   385      1.17657    1.16704


Fermi level: 1.21029

No gap
No difference between direct/indirect transitions
Timing:                              incl.     excl.
-----------------------------------------------------------
Basic WFS set positions:             0.001     0.001   0.0% |
Basis functions set positions:       0.199     0.199   0.0% |
LCAO WFS Initialize:                 0.444     0.104   0.0% |
 Hamiltonian:                        0.340     0.000   0.0% |
  Atomic:                            0.171     0.002   0.0% |
   XC Correction:                    0.169     0.169   0.0% |
  Calculate atomic Hamiltonians:     0.027     0.027   0.0% |
  Communicate:                       0.000     0.000   0.0% |
  Hartree integrate/restrict:        0.011     0.011   0.0% |
  Initialize Hamiltonian:            0.000     0.000   0.0% |
  Poisson:                           0.079     0.006   0.0% |
   Communicate from 1D:              0.008     0.008   0.0% |
   Communicate from 2D:              0.006     0.006   0.0% |
   Communicate to 1D:                0.011     0.011   0.0% |
   Communicate to 2D:                0.010     0.010   0.0% |
   FFT 1D:                           0.007     0.007   0.0% |
   FFT 2D:                           0.030     0.030   0.0% |
  XC 3D grid:                        0.046     0.046   0.0% |
  vbar:                              0.006     0.006   0.0% |
P tci:                               4.664     4.664   0.1% |
SCF-cycle:                        5721.767     0.183   0.0% |
 Density:                         4149.798     0.001   0.0% |
  Atomic density matrices:           1.090     1.090   0.0% |
  Mix:                               8.327     8.327   0.1% |
  Multipole moments:                 0.020     0.020   0.0% |
  Normalize:                         0.008     0.008   0.0% |
  Pseudo density:                 4140.352     0.280   0.0% |
   Calculate density matrix:        10.944    10.944   0.2% |
   Construct density:             4128.866  4128.866  72.0% |----------------------------|
   Symmetrize density:               0.262     0.262   0.0% |
 Hamiltonian:                       23.650     0.003   0.0% |
  Atomic:                           11.291     0.126   0.0% |
   XC Correction:                   11.165    11.165   0.2% |
  Calculate atomic Hamiltonians:     1.836     1.836   0.0% |
  Communicate:                       0.000     0.000   0.0% |
  Hartree integrate/restrict:        0.450     0.450   0.0% |
  Poisson:                           5.091     0.413   0.0% |
   Communicate from 1D:              0.522     0.522   0.0% |
   Communicate from 2D:              0.408     0.408   0.0% |
   Communicate to 1D:                0.640     0.640   0.0% |
   Communicate to 2D:                0.670     0.670   0.0% |
   FFT 1D:                           0.523     0.523   0.0% |
   FFT 2D:                           1.916     1.916   0.0% |
  XC 3D grid:                        4.176     4.176   0.1% |
  vbar:                              0.802     0.802   0.0% |
 LCAO eigensolver:                1548.137     1.805   0.0% |
  Calculate projections:            57.646    57.646   1.0% |
  DenseAtomicCorrection:           201.866   201.866   3.5% ||
  Distribute overlap matrix:         3.981     3.981   0.1% |
  Orbital Layouts:                 340.606   340.606   5.9% |-|
  Potential matrix:                866.713   866.713  15.1% |-----|
  Sum over cells:                   75.519    75.519   1.3% ||
ST tci:                              2.242     2.242   0.0% |
Set symmetry:                        0.000     0.000   0.0% |
TCI: Evaluate splines:               0.747     0.747   0.0% |
mktci:                               0.030     0.030   0.0% |
Other:                               4.460     4.460   0.1% |
-----------------------------------------------------------
Total:                                      5734.554 100.0%

Memory usage: 4.49 GiB
Date: Mon Feb 23 22:35:51 2026
