
  ___ ___ ___ _ _ _  
 |   |   |_  | | | | 
 | | | | | . | | | | 
 |__ |  _|___|_____|  25.7.0
 |___|_|             

User:   mikei@Z790-AORUS-ELITE-AX
Date:   Mon Feb 23 06:36:27 2026
Arch:   x86_64
Pid:    89048
CWD:    /home/mikei/Dokumenty/code/cemea/ocx
Python: 3.10.16
gpaw:   /home/mikei/.pyenv/versions/cemea-env/lib/python3.10/site-packages/gpaw
_gpaw:  /home/mikei/.pyenv/versions/cemea-env/lib/python3.10/site-packages/
        _gpaw.cpython-310-x86_64-linux-gnu.so
ase:    /home/mikei/.pyenv/versions/cemea-env/lib/python3.10/site-packages/ase (version 3.27.0)
numpy:  /home/mikei/.pyenv/versions/cemea-env/lib/python3.10/site-packages/numpy (version 2.2.6)
scipy:  /home/mikei/.pyenv/versions/cemea-env/lib/python3.10/site-packages/scipy (version 1.15.3)
libxc:  2.x.y
units:  Angstrom and eV
cores: 1
OpenMP: False
OMP_NUM_THREADS: 1

Input parameters:
  basis: dzp
  convergence: {density: 0.0001,
                eigenstates: 1e-05,
                energy: 1e-05}
  kpts: [4 4 1]
  mode: lcao

System changes: positions, numbers, cell, pbc, initial_charges, initial_magmoms 

Initialize ...

species:
  Ni:
    name: Nickel
    id: 1802175e8de9ea26d9f4394ec1a7d564
    Z: 28.0
    valence: 16
    core: 12
    charge: 0.0
    file: /home/mikei/.pyenv/versions/cemea-env/lib/python3.10/site-packages/gpaw_data/setups/Ni.LDA.gz
    compensation charges: {type: gauss,
                           rc: 0.36,
                           lmax: 2}
    cutoffs: {filter: 2.14,
              core: 1.98}
    projectors:
      #              energy  rcut
      - 4s(2.00)    -5.858   1.164
      - 3p(6.00)   -71.266   1.207
      - 4p(0.00)    -1.338   1.207
      - 3d(8.00)    -9.141   1.138
      -  s          21.353   1.164
      -  d          18.071   1.138
  
    # LCAO basis set for Ni:
    #   Name: dzp
    #   File: /home/mikei/.pyenv/versions/cemea-env/lib/python3.10/site-packages/gpaw_data/setups/Ni.dzp.basis.gz
    #   Number of radial functions: 9
    #   Number of spherical harmonics: 27
    #     l=0, rc=8.5156 Bohr: 4s-sz confined orbital
    #     l=1, rc=2.9375 Bohr: 3p-sz confined orbital
    #     l=1, rc=12.4062 Bohr: 4p-sz confined orbital
    #     l=2, rc=4.6875 Bohr: 3d-sz confined orbital
    #     l=0, rc=4.9688 Bohr: 4s-dz split-valence wave
    #     l=1, rc=2.0781 Bohr: 3p-dz split-valence wave
    #     l=1, rc=7.5469 Bohr: 4p-dz split-valence wave
    #     l=2, rc=2.9375 Bohr: 3d-dz split-valence wave
    #     l=1, rc=8.5156 Bohr: p-type Gaussian polarization
    #   Number of RI-basis functions 0

  Mo:
    name: Molybdenum
    id: ac24daaf086600a00ce6d19a74574df1
    Z: 42.0
    valence: 14
    core: 28
    charge: 0.0
    file: /home/mikei/.pyenv/versions/cemea-env/lib/python3.10/site-packages/gpaw_data/setups/Mo.LDA.gz
    compensation charges: {type: gauss,
                           rc: 0.38,
                           lmax: 2}
    cutoffs: {filter: 2.16,
              core: 1.42}
    projectors:
      #              energy  rcut
      - 4s(2.00)   -64.384   1.238
      - 5s(1.00)    -4.319   1.238
      - 4p(6.00)   -38.595   1.296
      - 5p(0.00)    -1.161   1.296
      - 4d(5.00)    -3.933   1.296
      -  d          23.278   1.296
  
    # LCAO basis set for Mo:
    #   Name: dzp
    #   File: /home/mikei/.pyenv/versions/cemea-env/lib/python3.10/site-packages/gpaw_data/setups/Mo.dzp.basis.gz
    #   Number of radial functions: 11
    #   Number of spherical harmonics: 29
    #     l=0, rc=3.5469 Bohr: 4s-sz confined orbital
    #     l=0, rc=10.0469 Bohr: 5s-sz confined orbital
    #     l=1, rc=4.0781 Bohr: 4p-sz confined orbital
    #     l=1, rc=14.0938 Bohr: 5p-sz confined orbital
    #     l=2, rc=7.2031 Bohr: 4d-sz confined orbital
    #     l=0, rc=2.1250 Bohr: 4s-dz split-valence wave
    #     l=0, rc=6.1250 Bohr: 5s-dz split-valence wave
    #     l=1, rc=2.5469 Bohr: 4p-dz split-valence wave
    #     l=1, rc=8.7656 Bohr: 5p-dz split-valence wave
    #     l=2, rc=4.2344 Bohr: 4d-dz split-valence wave
    #     l=1, rc=10.0469 Bohr: p-type Gaussian polarization
    #   Number of RI-basis functions 0

  C:
    name: Carbon
    id: d60576a1f549371a163e72552ca58787
    Z: 6.0
    valence: 4
    core: 2
    charge: 0.0
    file: /home/mikei/.pyenv/versions/cemea-env/lib/python3.10/site-packages/gpaw_data/setups/C.LDA.gz
    compensation charges: {type: gauss,
                           rc: 0.20,
                           lmax: 2}
    cutoffs: {filter: 1.14,
              core: 1.14}
    projectors:
      #              energy  rcut
      - 2s(2.00)   -13.639   0.635
      - 2p(2.00)    -5.414   0.635
      -  s          13.573   0.635
      -  p          21.797   0.635
      -  d           0.000   0.635
  
    # LCAO basis set for C:
    #   Name: dzp
    #   File: /home/mikei/.pyenv/versions/cemea-env/lib/python3.10/site-packages/gpaw_data/setups/C.dzp.basis.gz
    #   Number of radial functions: 5
    #   Number of spherical harmonics: 13
    #     l=0, rc=5.5469 Bohr: 2s-sz confined orbital
    #     l=1, rc=6.6719 Bohr: 2p-sz confined orbital
    #     l=0, rc=3.0312 Bohr: 2s-dz split-valence wave
    #     l=1, rc=3.7500 Bohr: 2p-dz split-valence wave
    #     l=2, rc=6.6719 Bohr: d-type Gaussian polarization
    #   Number of RI-basis functions 0

  Ir:
    name: Iridium
    id: ca472fc5a58bba06e8299391bae24b72
    Z: 77.0
    valence: 15
    core: 62
    charge: 0.0
    file: /home/mikei/.pyenv/versions/cemea-env/lib/python3.10/site-packages/gpaw_data/setups/Ir.LDA.gz
    compensation charges: {type: gauss,
                           rc: 0.40,
                           lmax: 2}
    cutoffs: {filter: 2.40,
              core: 2.36}
    projectors:
      #              energy  rcut
      - 6s(2.00)    -6.559   1.296
      - 5p(6.00)   -54.966   1.328
      - 6p(0.00)    -1.355   1.328
      - 5d(7.00)    -7.377   1.286
      -  s          20.652   1.296
      -  d          19.835   1.286
  
    # LCAO basis set for Ir:
    #   Name: dzp
    #   File: /home/mikei/.pyenv/versions/cemea-env/lib/python3.10/site-packages/gpaw_data/setups/Ir.dzp.basis.gz
    #   Number of radial functions: 9
    #   Number of spherical harmonics: 27
    #     l=0, rc=8.4062 Bohr: 6s-sz confined orbital
    #     l=1, rc=3.6406 Bohr: 5p-sz confined orbital
    #     l=1, rc=12.7031 Bohr: 6p-sz confined orbital
    #     l=2, rc=6.0469 Bohr: 5d-sz confined orbital
    #     l=0, rc=4.9844 Bohr: 6s-dz split-valence wave
    #     l=1, rc=2.4062 Bohr: 5p-dz split-valence wave
    #     l=1, rc=7.7969 Bohr: 6p-dz split-valence wave
    #     l=2, rc=3.5938 Bohr: 5d-dz split-valence wave
    #     l=1, rc=8.4062 Bohr: p-type Gaussian polarization
    #   Number of RI-basis functions 0

Reference energy: -4307904.117614  # eV

Spin-paired calculation

Convergence criteria:
 Maximum [total energy] change in last 3 cyles: 1e-05 eV / valence electron
 Maximum integral of absolute [dens]ity change: 0.0001 electrons / valence electron
 Maximum integral of absolute [eigenst]ate change: 1e-05 eV^2 / valence electron
 Maximum number of scf [iter]ations: 333
 (Square brackets indicate name in SCF output, whereas a 'c' in
 the SCF output indicates the quantity has converged.)

Symmetries present (total): 2

  ( 1  0  0)  ( 0  1  0)
  ( 0  1  0)  ( 1  0  0)
  ( 0  0  1)  ( 0  0  1)

16 k-points: 4 x 4 x 1 Monkhorst-Pack grid
6 k-points in the irreducible part of the Brillouin zone
       k-points in crystal coordinates                weights
   0:     0.12500000   -0.12500000    0.00000000          2/16
   1:     0.12500000    0.12500000    0.00000000          2/16
   2:     0.37500000   -0.37500000    0.00000000          2/16
   3:     0.37500000   -0.12500000    0.00000000          4/16
   4:     0.37500000    0.12500000    0.00000000          4/16
   5:     0.37500000    0.37500000    0.00000000          2/16

Wave functions: LCAO
  Diagonalizer: Serial LAPACK
  Atomic Correction: dense with blas
  Data-type: complex
 

Occupation numbers: Fermi-Dirac:
  width: 0.1000  # eV
 

Eigensolver
   LCAO using direct dense diagonalizer 

Densities:
  Coarse grid: 36*36*128 grid
  Fine grid: 72*72*256 grid
  Total Charge: 0.000000 

Density mixing:
  Method: separate
  Backend: pulay
  Linear mixing parameter: 0.05
  old densities: 5
  Damping of long wavelength oscillations: 50 

Hamiltonian:
  XC and Coulomb potentials evaluated on a 72*72*256 grid
  Using the LDA Exchange-Correlation functional
  Interpolation: tri-quintic (5. degree polynomial)
  Poisson solver: FastPoissonSolver using
    Stencil: 6*3+1=19 point O(h^6) finite-difference Laplacian
    FFT axes: [np.int64(0), np.int64(1), np.int64(2)]
    FST axes: []
 

Memory estimate:
  Process memory now: 4595.48 MiB
  Calculator: 997.50 MiB
    Density: 242.17 MiB
      Arrays: 32.91 MiB
      Localized functions: 196.61 MiB
      Mixer: 12.66 MiB
    Hamiltonian: 36.24 MiB
      Arrays: 21.52 MiB
      XC: 0.00 MiB
      Poisson: 0.00 MiB
      vbar: 14.72 MiB
    Wavefunctions: 719.09 MiB
      C [qnM]: 57.82 MiB
      S, T [2 x qmm]: 340.67 MiB
      P [aqMi]: 7.15 MiB
      BasisFunctions: 313.46 MiB
      Eigensolver: 0.00 MiB

Total number of cores used: 1

Number of atoms: 52
Number of atomic orbitals: 1364
Number of bands in calculation: 463
Number of valence electrons: 764
Bands to converge: occupied

... initialized

Initializing position-dependent things.

Density initialized from atomic densities
      .-----------------.  
     /|                 |  
    / |                 |  
   /  |                 |  
  /   |                 |  
 *    |                 |  
 |    |                 |  
 |    |                 |  
 |    |                 |  
 |    |                 |  
 |    |  Ir    Ir       |  
 |    |Ir Mo Ir     Mo  |  
 |    |                 |  
 |    |Mo C      Mo C   |  
 |  Mo|       Mo        |  
 |    |                 |  
 |    |C         C      |  
 Mo Ni|   NMo   Ni      |  
 | Ni | NNi   NNi   Ni  |  
 |    |                 |  
 Ni   NNi   NNi   Ni    |  
 |  NNi   NNi   NNi     |  
 | Ni | NNi   NNi   Ni  |  
 |    |                 |  
 Ni   NNi   NNi   Ni    |  
 |   Ni    Ni    Ni     |  
 |    |                 |  
 |    |                 |  
 |    |                 |  
 |    |                 |  
 |    |                 |  
 |    .-----------------.  
 |   /                 /   
 |  /                 /    
 | /                 /     
 |/                 /      
 *-----------------*       

Atomic positions and initial magnetic moments

Positions:
   0 Ni     1.244508    1.244508    8.000000    ( 0.0000,  0.0000,  0.0000)
   1 Ni     3.733524    1.244508    8.000000    ( 0.0000,  0.0000,  0.0000)
   2 Ni     6.222540    1.244508    8.000000    ( 0.0000,  0.0000,  0.0000)
   3 Ni     1.244508    3.733524    8.000000    ( 0.0000,  0.0000,  0.0000)
   4 Ni     3.733524    3.733524    8.000000    ( 0.0000,  0.0000,  0.0000)
   5 Ni     6.222540    3.733524    8.000000    ( 0.0000,  0.0000,  0.0000)
   6 Ni     1.244508    6.222540    8.000000    ( 0.0000,  0.0000,  0.0000)
   7 Ni     3.733524    6.222540    8.000000    ( 0.0000,  0.0000,  0.0000)
   8 Ni     6.222540    6.222540    8.000000    ( 0.0000,  0.0000,  0.0000)
   9 Ni     0.000000    0.000000    9.760000    ( 0.0000,  0.0000,  0.0000)
  10 Ni     2.489016    0.000000    9.760000    ( 0.0000,  0.0000,  0.0000)
  11 Ni     4.978032    0.000000    9.760000    ( 0.0000,  0.0000,  0.0000)
  12 Ni     0.000000    2.489016    9.760000    ( 0.0000,  0.0000,  0.0000)
  13 Ni     2.489016    2.489016    9.760000    ( 0.0000,  0.0000,  0.0000)
  14 Ni     4.978032    2.489016    9.760000    ( 0.0000,  0.0000,  0.0000)
  15 Ni     0.000000    4.978032    9.760000    ( 0.0000,  0.0000,  0.0000)
  16 Ni     2.489016    4.978032    9.760000    ( 0.0000,  0.0000,  0.0000)
  17 Ni     4.978032    4.978032    9.760000    ( 0.0000,  0.0000,  0.0000)
  18 Ni     1.244508    1.244508   11.520000    ( 0.0000,  0.0000,  0.0000)
  19 Ni     3.733524    1.244508   11.520000    ( 0.0000,  0.0000,  0.0000)
  20 Ni     6.222540    1.244508   11.520000    ( 0.0000,  0.0000,  0.0000)
  21 Ni     1.244508    3.733524   11.520000    ( 0.0000,  0.0000,  0.0000)
  22 Ni     3.733524    3.733524   11.520000    ( 0.0000,  0.0000,  0.0000)
  23 Ni     6.222540    3.733524   11.520000    ( 0.0000,  0.0000,  0.0000)
  24 Ni     1.244508    6.222540   11.520000    ( 0.0000,  0.0000,  0.0000)
  25 Ni     3.733524    6.222540   11.520000    ( 0.0000,  0.0000,  0.0000)
  26 Ni     6.222540    6.222540   11.520000    ( 0.0000,  0.0000,  0.0000)
  27 Ni     0.000000    0.000000   13.280000    ( 0.0000,  0.0000,  0.0000)
  28 Ni     2.489016    0.000000   13.280000    ( 0.0000,  0.0000,  0.0000)
  29 Ni     4.978032    0.000000   13.280000    ( 0.0000,  0.0000,  0.0000)
  30 Ni     0.000000    2.489016   13.280000    ( 0.0000,  0.0000,  0.0000)
  31 Ni     2.489016    2.489016   13.280000    ( 0.0000,  0.0000,  0.0000)
  32 Ni     4.978032    2.489016   13.280000    ( 0.0000,  0.0000,  0.0000)
  33 Ni     0.000000    4.978032   13.280000    ( 0.0000,  0.0000,  0.0000)
  34 Ni     2.489016    4.978032   13.280000    ( 0.0000,  0.0000,  0.0000)
  35 Ni     4.978032    4.978032   13.280000    ( 0.0000,  0.0000,  0.0000)
  36 Mo     0.000000    0.000000   15.480000    ( 0.0000,  0.0000,  0.0000)
  37 Mo     2.060000    2.060000   17.540000    ( 0.0000,  0.0000,  0.0000)
  38 C      2.060000    2.060000   15.480000    ( 0.0000,  0.0000,  0.0000)
  39 Mo     0.000000    4.120000   15.480000    ( 0.0000,  0.0000,  0.0000)
  40 Mo     2.060000    6.180000   17.540000    ( 0.0000,  0.0000,  0.0000)
  41 C      2.060000    6.180000   15.480000    ( 0.0000,  0.0000,  0.0000)
  42 Mo     4.120000    0.000000   15.480000    ( 0.0000,  0.0000,  0.0000)
  43 Mo     6.180000    2.060000   17.540000    ( 0.0000,  0.0000,  0.0000)
  44 C      6.180000    2.060000   15.480000    ( 0.0000,  0.0000,  0.0000)
  45 Mo     4.120000    4.120000   15.480000    ( 0.0000,  0.0000,  0.0000)
  46 Mo     6.180000    6.180000   17.540000    ( 0.0000,  0.0000,  0.0000)
  47 C      6.180000    6.180000   15.480000    ( 0.0000,  0.0000,  0.0000)
  48 Ir     1.991786    1.991786   19.340000    ( 0.0000,  0.0000,  0.0000)
  49 Ir     1.991786    4.391786   19.340000    ( 0.0000,  0.0000,  0.0000)
  50 Ir     4.391786    1.991786   19.340000    ( 0.0000,  0.0000,  0.0000)
  51 Ir     4.391786    4.391786   19.340000    ( 0.0000,  0.0000,  0.0000)

Unit cell:
           periodic     x           y           z      points  spacing
  1. axis:    yes    7.467048    0.000000    0.000000    36     0.2074
  2. axis:    yes    0.000000    7.467048    0.000000    36     0.2074
  3. axis:    yes    0.000000    0.000000   25.540000   128     0.1995

  Lengths:   7.467048   7.467048  25.540000
  Angles:   90.000000  90.000000  90.000000

Effective grid spacing dv^(1/3) = 0.2048

     iter     time        total  log10-change:
                         energy   eigst   dens
iter:   1 06:36:56 -1417.837774        c
iter:   2 06:38:12 -5873.842815        c -0.83
iter:   3 06:39:27  -740.059610        c -0.38
iter:   4 06:40:44  -481.176184        c -1.10
iter:   5 06:41:59  -436.882270        c -1.36
iter:   6 06:43:18  -541.391182        c -1.42
iter:   7 06:44:38  -491.712532        c -1.34
iter:   8 06:45:54  -477.653925        c -1.41
iter:   9 06:47:09  -439.505763        c -1.51
iter:  10 06:48:26  -430.334490        c -1.57
iter:  11 06:49:41  -447.978193        c -1.46
iter:  12 06:50:58  -429.070651        c -1.52
iter:  13 06:52:18  -416.795423        c -1.61
iter:  14 06:53:33  -431.230400        c -1.82
iter:  15 06:54:49  -405.903497        c -1.58
iter:  16 06:56:07  -410.002438        c -1.93
iter:  17 06:57:23  -407.552179        c -1.82
iter:  18 06:58:38  -414.349994        c -1.90
iter:  19 06:59:54  -406.128310        c -1.82
iter:  20 07:01:09  -418.239746        c -2.02
iter:  21 07:02:24  -418.208264        c -1.80
iter:  22 07:03:39  -416.900839        c -1.80
iter:  23 07:04:54  -409.822052        c -1.87
iter:  24 07:06:10  -404.628110        c -1.86
iter:  25 07:07:25  -406.914805        c -2.33
iter:  26 07:08:40  -405.457756        c -2.15
iter:  27 07:09:55  -404.930168        c -2.16
iter:  28 07:11:13  -403.973655        c -2.26
iter:  29 07:12:33  -403.922841        c -2.53
iter:  30 07:13:50  -404.136971        c -2.58
iter:  31 07:15:05  -404.005360        c -2.46
iter:  32 07:16:22  -403.897604        c -2.62
iter:  33 07:17:38  -403.938935        c -2.79
iter:  34 07:18:56  -405.247925        c -2.79
iter:  35 07:20:12  -404.072134        c -2.18
iter:  36 07:21:27  -404.196374        c -2.54
iter:  37 07:22:47  -403.878144        c -2.55
iter:  38 07:24:02  -403.882050        c -2.74
iter:  39 07:25:22  -403.821660        c -2.72
iter:  40 07:26:37  -403.777175        c -2.91
iter:  41 07:27:52  -403.808252        c -3.19
iter:  42 07:29:10  -403.996501        c -3.00
iter:  43 07:30:25  -403.808044        c -2.72
iter:  44 07:31:40  -403.766268        c -3.04
iter:  45 07:32:56  -403.768356        c -3.37
iter:  46 07:34:11  -403.775106        c -3.46
iter:  47 07:35:26  -403.764702        c -3.38
iter:  48 07:36:41  -403.769082        c -3.41
iter:  49 07:37:56  -403.769208c       c -3.66
iter:  50 07:39:14  -403.769912c       c -3.68
iter:  51 07:40:37  -403.779105        c -3.66
iter:  52 07:41:52  -403.776328        c -3.42
iter:  53 07:43:12  -403.768569        c -3.39
iter:  54 07:44:28  -403.769614        c -3.19
iter:  55 07:45:48  -403.768981c       c -3.74
iter:  56 07:47:09  -403.768976c       c -3.77
iter:  57 07:48:24  -403.764728c       c -3.80
iter:  58 07:49:41  -403.765371c       c -3.87
iter:  59 07:50:56  -403.771302c       c -3.86
iter:  60 07:52:15  -403.762829        c -3.69
iter:  61 07:53:32  -403.765710        c -3.68
iter:  62 07:54:57  -403.764422c       c -4.20c

Converged after 62 iterations.

Dipole moment: (-8.237935, -8.237935, -0.023325) |e|*Ang

Energy contributions relative to reference atoms: (reference = -4307904.117614)

Kinetic:       +185.317846
Potential:     -156.918178
External:        +0.000000
XC:            -428.360528
Entropy (-ST):   -3.937180
Local:           -1.834972
SIC:             +0.000000
--------------------------
Free energy:   -405.733012
Extrapolated:  -403.764422

Showing only first 2 kpts
 Kpt  Band  Eigenvalues  Occupancy
  0   380      1.08947    1.28752
  0   381      1.09460    1.26380
  0   382      1.10457    1.21685
  0   383      1.11964    1.14399

  1   380      1.09047    1.28292
  1   381      1.09294    1.27149
  1   382      1.11252    1.17864
  1   383      1.12344    1.12535


Fermi level: 1.14864

No gap
No difference between direct/indirect transitions
Timing:                              incl.     excl.
-----------------------------------------------------------
Basic WFS set positions:             0.001     0.001   0.0% |
Basis functions set positions:       0.190     0.190   0.0% |
LCAO WFS Initialize:                 0.417     0.096   0.0% |
 Hamiltonian:                        0.321     0.000   0.0% |
  Atomic:                            0.169     0.002   0.0% |
   XC Correction:                    0.167     0.167   0.0% |
  Calculate atomic Hamiltonians:     0.028     0.028   0.0% |
  Communicate:                       0.000     0.000   0.0% |
  Hartree integrate/restrict:        0.006     0.006   0.0% |
  Initialize Hamiltonian:            0.001     0.001   0.0% |
  Poisson:                           0.072     0.005   0.0% |
   Communicate from 1D:              0.006     0.006   0.0% |
   Communicate from 2D:              0.006     0.006   0.0% |
   Communicate to 1D:                0.008     0.008   0.0% |
   Communicate to 2D:                0.008     0.008   0.0% |
   FFT 1D:                           0.009     0.009   0.0% |
   FFT 2D:                           0.030     0.030   0.0% |
  XC 3D grid:                        0.045     0.045   0.0% |
  vbar:                              0.001     0.001   0.0% |
P tci:                               4.233     4.233   0.1% |
SCF-cycle:                        4698.837     0.164   0.0% |
 Density:                         3460.711     0.001   0.0% |
  Atomic density matrices:           0.957     0.957   0.0% |
  Mix:                               6.616     6.616   0.1% |
  Multipole moments:                 0.018     0.018   0.0% |
  Normalize:                         0.007     0.007   0.0% |
  Pseudo density:                 3453.111     0.020   0.0% |
   Calculate density matrix:         8.239     8.239   0.2% |
   Construct density:             3444.622  3444.622  73.1% |----------------------------|
   Symmetrize density:               0.230     0.230   0.0% |
 Hamiltonian:                       20.571     0.003   0.0% |
  Atomic:                           10.310     0.112   0.0% |
   XC Correction:                   10.197    10.197   0.2% |
  Calculate atomic Hamiltonians:     1.691     1.691   0.0% |
  Communicate:                       0.000     0.000   0.0% |
  Hartree integrate/restrict:        0.370     0.370   0.0% |
  Poisson:                           4.069     0.306   0.0% |
   Communicate from 1D:              0.364     0.364   0.0% |
   Communicate from 2D:              0.373     0.373   0.0% |
   Communicate to 1D:                0.451     0.451   0.0% |
   Communicate to 2D:                0.403     0.403   0.0% |
   FFT 1D:                           0.484     0.484   0.0% |
   FFT 2D:                           1.687     1.687   0.0% |
  XC 3D grid:                        3.620     3.620   0.1% |
  vbar:                              0.509     0.509   0.0% |
 LCAO eigensolver:                1217.391     1.290   0.0% |
  Calculate projections:            41.604    41.604   0.9% |
  DenseAtomicCorrection:           162.434   162.434   3.4% ||
  Distribute overlap matrix:         2.732     2.732   0.1% |
  Orbital Layouts:                 231.449   231.449   4.9% |-|
  Potential matrix:                713.612   713.612  15.2% |-----|
  Sum over cells:                   64.270    64.270   1.4% ||
ST tci:                              2.059     2.059   0.0% |
Set symmetry:                        0.000     0.000   0.0% |
TCI: Evaluate splines:               0.592     0.592   0.0% |
mktci:                               0.027     0.027   0.0% |
Other:                               3.948     3.948   0.1% |
-----------------------------------------------------------
Total:                                      4710.304 100.0%

Memory usage: 4.49 GiB
Date: Mon Feb 23 07:54:57 2026
