
  ___ ___ ___ _ _ _  
 |   |   |_  | | | | 
 | | | | | . | | | | 
 |__ |  _|___|_____|  25.7.0
 |___|_|             

User:   ubuntu@third-test
Date:   Thu Feb 19 01:18:50 2026
Arch:   x86_64
Pid:    2718679
CWD:    /mnt/vdd1/work/cemea/fairchem/src/fairchem/applications/ocx/mo_h_adsorption_workflow
Python: 3.10.16
gpaw:   /home/ubuntu/.pyenv/versions/cemea-env/lib/python3.10/site-packages/gpaw
_gpaw:  /home/ubuntu/.pyenv/versions/cemea-env/lib/python3.10/site-packages/
        _gpaw.cpython-310-x86_64-linux-gnu.so
ase:    /home/ubuntu/.pyenv/versions/cemea-env/lib/python3.10/site-packages/ase (version 3.27.0)
numpy:  /home/ubuntu/.pyenv/versions/cemea-env/lib/python3.10/site-packages/numpy (version 2.2.6)
scipy:  /home/ubuntu/.pyenv/versions/cemea-env/lib/python3.10/site-packages/scipy (version 1.15.3)
libxc:  2.x.y
units:  Angstrom and eV
cores: 1
OpenMP: False
OMP_NUM_THREADS: 1

Input parameters:
  basis: dzp
  convergence: {density: 0.0001,
                eigenstates: 1e-05,
                energy: 1e-05}
  kpts: [4 4 1]
  mode: lcao

System changes: positions, numbers, cell, pbc, initial_charges, initial_magmoms 

Initialize ...

species:
  Mo:
    name: Molybdenum
    id: ac24daaf086600a00ce6d19a74574df1
    Z: 42.0
    valence: 14
    core: 28
    charge: 0.0
    file: /home/ubuntu/.pyenv/versions/cemea-env/lib/python3.10/site-packages/gpaw_data/setups/Mo.LDA.gz
    compensation charges: {type: gauss,
                           rc: 0.38,
                           lmax: 2}
    cutoffs: {filter: 2.16,
              core: 1.42}
    projectors:
      #              energy  rcut
      - 4s(2.00)   -64.384   1.238
      - 5s(1.00)    -4.319   1.238
      - 4p(6.00)   -38.595   1.296
      - 5p(0.00)    -1.161   1.296
      - 4d(5.00)    -3.933   1.296
      -  d          23.278   1.296
  
    # LCAO basis set for Mo:
    #   Name: dzp
    #   File: /home/ubuntu/.pyenv/versions/cemea-env/lib/python3.10/site-packages/gpaw_data/setups/Mo.dzp.basis.gz
    #   Number of radial functions: 11
    #   Number of spherical harmonics: 29
    #     l=0, rc=3.5469 Bohr: 4s-sz confined orbital
    #     l=0, rc=10.0469 Bohr: 5s-sz confined orbital
    #     l=1, rc=4.0781 Bohr: 4p-sz confined orbital
    #     l=1, rc=14.0938 Bohr: 5p-sz confined orbital
    #     l=2, rc=7.2031 Bohr: 4d-sz confined orbital
    #     l=0, rc=2.1250 Bohr: 4s-dz split-valence wave
    #     l=0, rc=6.1250 Bohr: 5s-dz split-valence wave
    #     l=1, rc=2.5469 Bohr: 4p-dz split-valence wave
    #     l=1, rc=8.7656 Bohr: 5p-dz split-valence wave
    #     l=2, rc=4.2344 Bohr: 4d-dz split-valence wave
    #     l=1, rc=10.0469 Bohr: p-type Gaussian polarization
    #   Number of RI-basis functions 0

  S:
    name: Sulfur
    id: a5eb49d7597a2879c13719b04c71318f
    Z: 16.0
    valence: 6
    core: 10
    charge: 0.0
    file: /home/ubuntu/.pyenv/versions/cemea-env/lib/python3.10/site-packages/gpaw_data/setups/S.LDA.gz
    compensation charges: {type: gauss,
                           rc: 0.24,
                           lmax: 2}
    cutoffs: {filter: 1.77,
              core: 1.66}
    projectors:
      #              energy  rcut
      - 3s(2.00)   -17.278   0.974
      - 3p(4.00)    -7.106   0.979
      -  s           9.933   0.974
      -  p          20.105   0.979
      -  d           0.000   0.900
  
    # LCAO basis set for S:
    #   Name: dzp
    #   File: /home/ubuntu/.pyenv/versions/cemea-env/lib/python3.10/site-packages/gpaw_data/setups/S.dzp.basis.gz
    #   Number of radial functions: 5
    #   Number of spherical harmonics: 13
    #     l=0, rc=5.5156 Bohr: 3s-sz confined orbital
    #     l=1, rc=6.9375 Bohr: 3p-sz confined orbital
    #     l=0, rc=3.0469 Bohr: 3s-dz split-valence wave
    #     l=1, rc=3.9375 Bohr: 3p-dz split-valence wave
    #     l=2, rc=6.9375 Bohr: d-type Gaussian polarization
    #   Number of RI-basis functions 0

  H:
    name: Hydrogen
    id: 4766778ce56282eaa64abeb28b7c1de3
    Z: 1.0
    valence: 1
    core: 0
    charge: 0.0
    file: /home/ubuntu/.pyenv/versions/cemea-env/lib/python3.10/site-packages/gpaw_data/setups/H.LDA.gz
    compensation charges: {type: gauss,
                           rc: 0.15,
                           lmax: 2}
    cutoffs: {filter: 0.85,
              core: 0.53}
    projectors:
      #              energy  rcut
      - 1s(1.00)    -6.353   0.476
      -  s          20.858   0.476
      -  p           0.000   0.476
  
    # LCAO basis set for H:
    #   Name: dzp
    #   File: /home/ubuntu/.pyenv/versions/cemea-env/lib/python3.10/site-packages/gpaw_data/setups/H.dzp.basis.gz
    #   Number of radial functions: 3
    #   Number of spherical harmonics: 5
    #     l=0, rc=6.4219 Bohr: 1s-sz confined orbital
    #     l=0, rc=3.6094 Bohr: 1s-dz split-valence wave
    #     l=1, rc=6.4219 Bohr: p-type Gaussian polarization
    #   Number of RI-basis functions 0

Reference energy: -526688.052656  # eV

Spin-paired calculation

Convergence criteria:
 Maximum [total energy] change in last 3 cyles: 1e-05 eV / valence electron
 Maximum integral of absolute [dens]ity change: 0.0001 electrons / valence electron
 Maximum integral of absolute [eigenst]ate change: 1e-05 eV^2 / valence electron
 Maximum number of scf [iter]ations: 333
 (Square brackets indicate name in SCF output, whereas a 'c' in
 the SCF output indicates the quantity has converged.)

Symmetries present (total): 1

  ( 1  0  0)
  ( 0  1  0)
  ( 0  0  1)

16 k-points: 4 x 4 x 1 Monkhorst-Pack grid
8 k-points in the irreducible part of the Brillouin zone
       k-points in crystal coordinates                weights
   0:     0.12500000   -0.37500000    0.00000000          2/16
   1:     0.12500000   -0.12500000    0.00000000          2/16
   2:     0.12500000    0.12500000    0.00000000          2/16
   3:     0.12500000    0.37500000    0.00000000          2/16
   4:     0.37500000   -0.37500000    0.00000000          2/16
   5:     0.37500000   -0.12500000    0.00000000          2/16
   6:     0.37500000    0.12500000    0.00000000          2/16
   7:     0.37500000    0.37500000    0.00000000          2/16

Wave functions: LCAO
  Diagonalizer: Serial LAPACK
  Atomic Correction: dense with blas
  Data-type: complex
 

Occupation numbers: Fermi-Dirac:
  width: 0.1000  # eV
 

Eigensolver
   LCAO using direct dense diagonalizer 

Densities:
  Coarse grid: 28*28*96 grid
  Fine grid: 56*56*192 grid
  Total Charge: 0.000000 

Density mixing:
  Method: separate
  Backend: pulay
  Linear mixing parameter: 0.05
  old densities: 5
  Damping of long wavelength oscillations: 50 

Hamiltonian:
  XC and Coulomb potentials evaluated on a 56*56*192 grid
  Using the LDA Exchange-Correlation functional
  Interpolation: tri-quintic (5. degree polynomial)
  Poisson solver: FastPoissonSolver using
    Stencil: 8*3+1=25 point O(h^6) finite-difference Laplacian
    FFT axes: [np.int64(0), np.int64(1), np.int64(2)]
    FST axes: []
 

Memory estimate:
  Process memory now: 1685.06 MiB
  Calculator: 133.55 MiB
    Density: 55.36 MiB
      Arrays: 14.93 MiB
      Localized functions: 34.69 MiB
      Mixer: 5.74 MiB
    Hamiltonian: 12.27 MiB
      Arrays: 9.76 MiB
      XC: 0.00 MiB
      Poisson: 0.00 MiB
      vbar: 2.51 MiB
    Wavefunctions: 65.92 MiB
      C [qnM]: 1.84 MiB
      S, T [2 x qmm]: 12.36 MiB
      P [aqMi]: 0.31 MiB
      BasisFunctions: 51.41 MiB
      Eigensolver: 0.00 MiB

Total number of cores used: 1

Number of atoms: 13
Number of atomic orbitals: 225
Number of bands in calculation: 67
Number of valence electrons: 105
Bands to converge: occupied

... initialized

Initializing position-dependent things.

Density initialized from atomic densities
                                  
                                  
                                  
                                  
                                  
          S    H S                
                                  
            S       S             
         Mo     Mo                
             S       S            
           Mo     Mo              
               S       S          
                                  
                                  
                                  
                                  

Atomic positions and initial magnetic moments

Positions:
   0 Mo     0.000000    0.000000    9.475400    ( 0.0000,  0.0000,  0.0000)
   1 S     -0.000000    1.824427   10.950800    ( 0.0000,  0.0000,  0.0000)
   2 S      1.580000    0.912213    8.000000    ( 0.0000,  0.0000,  0.0000)
   3 Mo    -1.580000    2.736640    9.475400    ( 0.0000,  0.0000,  0.0000)
   4 S     -1.580000    4.561067   10.950800    ( 0.0000,  0.0000,  0.0000)
   5 S     -0.000000    3.648854    8.000000    ( 0.0000,  0.0000,  0.0000)
   6 Mo     3.160000    0.000000    9.475400    ( 0.0000,  0.0000,  0.0000)
   7 S      3.160000    1.824427   10.950800    ( 0.0000,  0.0000,  0.0000)
   8 S      4.740000    0.912213    8.000000    ( 0.0000,  0.0000,  0.0000)
   9 Mo     1.580000    2.736640    9.475400    ( 0.0000,  0.0000,  0.0000)
  10 S      1.580000    4.561067   10.950800    ( 0.0000,  0.0000,  0.0000)
  11 S      3.160000    3.648854    8.000000    ( 0.0000,  0.0000,  0.0000)
  12 H      1.316667    2.280534   12.450800    ( 0.0000,  0.0000,  0.0000)

Unit cell:
           periodic     x           y           z      points  spacing
  1. axis:    yes    6.320000    0.000000    0.000000    28     0.1955
  2. axis:    yes   -3.160000    5.473281    0.000000    28     0.1955
  3. axis:    yes    0.000000    0.000000   18.950800    96     0.1974

  Lengths:   6.320000   6.320000  18.950800
  Angles:   90.000000  90.000000 120.000000

Effective grid spacing dv^(1/3) = 0.2057

     iter     time        total  log10-change:
                         energy   eigst   dens
iter:   1 01:19:48   -95.240550        c
iter:   2 01:20:56   -93.817538        c -1.21
iter:   3 01:22:17   -92.210005        c -1.27
iter:   4 01:23:29   -91.430949        c -1.34
iter:   5 01:24:45   -91.077420        c -1.47
iter:   6 01:25:58   -91.016716        c -1.82
iter:   7 01:27:11   -90.968699        c -1.94
iter:   8 01:28:32   -90.944321        c -2.22
iter:   9 01:29:45   -90.932904        c -2.31
iter:  10 01:30:52   -90.928704        c -2.51
iter:  11 01:32:11   -90.927948        c -2.76
iter:  12 01:33:30   -90.925396        c -2.80
iter:  13 01:34:45   -90.925262        c -3.25
iter:  14 01:35:52   -90.925211c       c -3.39
iter:  15 01:37:07   -90.925164c       c -3.54
iter:  16 01:38:19   -90.925132c       c -3.78
iter:  17 01:39:28   -90.925111c       c -3.98
iter:  18 01:40:46   -90.925089c       c -4.09c

Converged after 18 iterations.

Dipole moment: (-1.335586, -2.215488, 0.015399) |e|*Ang

Energy contributions relative to reference atoms: (reference = -526688.052656)

Kinetic:       +104.248235
Potential:     -110.254173
External:        +0.000000
XC:             -84.968011
Entropy (-ST):   -0.205149
Local:           +0.151434
SIC:             +0.000000
--------------------------
Free energy:    -91.027663
Extrapolated:   -90.925089

Showing only first 2 kpts
 Kpt  Band  Eigenvalues  Occupancy
  0    50     -1.73883    1.99943
  0    51     -1.42825    1.98733
  0    52     -0.94314    1.10186
  0    53     -0.46304    0.01997

  1    50     -2.23715    2.00000
  1    51     -1.78508    1.99964
  1    52     -1.08091    1.65898
  1    53     -0.90804    0.92684


Fermi level: -0.92270

No gap
No difference between direct/indirect transitions
Timing:                              incl.     excl.
-----------------------------------------------------------
Basic WFS set positions:             0.000     0.000   0.0% |
Basis functions set positions:       0.060     0.060   0.0% |
LCAO WFS Initialize:                 0.247     0.040   0.0% |
 Hamiltonian:                        0.207     0.000   0.0% |
  Atomic:                            0.072     0.001   0.0% |
   XC Correction:                    0.072     0.072   0.0% |
  Calculate atomic Hamiltonians:     0.007     0.007   0.0% |
  Communicate:                       0.000     0.000   0.0% |
  Hartree integrate/restrict:        0.028     0.028   0.0% |
  Initialize Hamiltonian:            0.000     0.000   0.0% |
  Poisson:                           0.055     0.002   0.0% |
   Communicate from 1D:              0.008     0.008   0.0% |
   Communicate from 2D:              0.009     0.009   0.0% |
   Communicate to 1D:                0.008     0.008   0.0% |
   Communicate to 2D:                0.009     0.009   0.0% |
   FFT 1D:                           0.005     0.005   0.0% |
   FFT 2D:                           0.015     0.015   0.0% |
  XC 3D grid:                        0.029     0.029   0.0% |
  vbar:                              0.014     0.014   0.0% |
P tci:                               0.496     0.496   0.0% |
SCF-cycle:                        1314.338     0.031   0.0% |
 Density:                          192.090     0.000   0.0% |
  Atomic density matrices:           0.054     0.054   0.0% |
  Mix:                               5.268     5.268   0.4% |
  Multipole moments:                 0.004     0.004   0.0% |
  Normalize:                         0.002     0.002   0.0% |
  Pseudo density:                  186.761     0.012   0.0% |
   Calculate density matrix:         4.010     4.010   0.3% |
   Construct density:              182.738   182.738  13.9% |-----|
   Symmetrize density:               0.001     0.001   0.0% |
 Hamiltonian:                        4.154     0.001   0.0% |
  Atomic:                            1.296     0.019   0.0% |
   XC Correction:                    1.277     1.277   0.1% |
  Calculate atomic Hamiltonians:     0.136     0.136   0.0% |
  Communicate:                       0.000     0.000   0.0% |
  Hartree integrate/restrict:        0.583     0.583   0.0% |
  Poisson:                           1.136     0.037   0.0% |
   Communicate from 1D:              0.153     0.153   0.0% |
   Communicate from 2D:              0.160     0.160   0.0% |
   Communicate to 1D:                0.207     0.207   0.0% |
   Communicate to 2D:                0.171     0.171   0.0% |
   FFT 1D:                           0.092     0.092   0.0% |
   FFT 2D:                           0.316     0.316   0.0% |
  XC 3D grid:                        0.692     0.692   0.1% |
  vbar:                              0.309     0.309   0.0% |
 LCAO eigensolver:                1118.064     0.030   0.0% |
  Calculate projections:             2.361     2.361   0.2% |
  DenseAtomicCorrection:            11.759    11.759   0.9% |
  Distribute overlap matrix:         0.018     0.018   0.0% |
  Orbital Layouts:                1065.493  1065.493  80.9% |-------------------------------|
  Potential matrix:                 33.858    33.858   2.6% ||
  Sum over cells:                    4.544     4.544   0.3% |
ST tci:                              0.317     0.317   0.0% |
Set symmetry:                        0.001     0.001   0.0% |
TCI: Evaluate splines:               0.352     0.352   0.0% |
mktci:                               0.010     0.010   0.0% |
Other:                               0.648     0.648   0.0% |
-----------------------------------------------------------
Total:                                      1316.469 100.0%

Memory usage: 1.65 GiB
Date: Thu Feb 19 01:40:46 2026
