
  ___ ___ ___ _ _ _  
 |   |   |_  | | | | 
 | | | | | . | | | | 
 |__ |  _|___|_____|  25.7.0
 |___|_|             

User:   ubuntu@third-test
Date:   Thu Feb 12 17:18:35 2026
Arch:   x86_64
Pid:    1539777
CWD:    /mnt/vdd1/work/cemea/fairchem/src/fairchem/applications/ocx/mo_h_adsorption_workflow
Python: 3.10.16
gpaw:   /home/ubuntu/.pyenv/versions/cemea-env/lib/python3.10/site-packages/gpaw
_gpaw:  /home/ubuntu/.pyenv/versions/cemea-env/lib/python3.10/site-packages/
        _gpaw.cpython-310-x86_64-linux-gnu.so
ase:    /home/ubuntu/.pyenv/versions/cemea-env/lib/python3.10/site-packages/ase (version 3.27.0)
numpy:  /home/ubuntu/.pyenv/versions/cemea-env/lib/python3.10/site-packages/numpy (version 2.2.6)
scipy:  /home/ubuntu/.pyenv/versions/cemea-env/lib/python3.10/site-packages/scipy (version 1.15.3)
libxc:  2.x.y
units:  Angstrom and eV
cores: 1
OpenMP: False
OMP_NUM_THREADS: 1

Input parameters:
  basis: dzp
  convergence: {density: 0.0001,
                eigenstates: 1e-05,
                energy: 1e-05}
  kpts: [4 4 1]
  mode: lcao

System changes: positions, numbers, cell, pbc, initial_charges, initial_magmoms 

Initialize ...

species:
  Mo:
    name: Molybdenum
    id: ac24daaf086600a00ce6d19a74574df1
    Z: 42.0
    valence: 14
    core: 28
    charge: 0.0
    file: /home/ubuntu/.pyenv/versions/cemea-env/lib/python3.10/site-packages/gpaw_data/setups/Mo.LDA.gz
    compensation charges: {type: gauss,
                           rc: 0.38,
                           lmax: 2}
    cutoffs: {filter: 2.16,
              core: 1.42}
    projectors:
      #              energy  rcut
      - 4s(2.00)   -64.384   1.238
      - 5s(1.00)    -4.319   1.238
      - 4p(6.00)   -38.595   1.296
      - 5p(0.00)    -1.161   1.296
      - 4d(5.00)    -3.933   1.296
      -  d          23.278   1.296
  
    # LCAO basis set for Mo:
    #   Name: dzp
    #   File: /home/ubuntu/.pyenv/versions/cemea-env/lib/python3.10/site-packages/gpaw_data/setups/Mo.dzp.basis.gz
    #   Number of radial functions: 11
    #   Number of spherical harmonics: 29
    #     l=0, rc=3.5469 Bohr: 4s-sz confined orbital
    #     l=0, rc=10.0469 Bohr: 5s-sz confined orbital
    #     l=1, rc=4.0781 Bohr: 4p-sz confined orbital
    #     l=1, rc=14.0938 Bohr: 5p-sz confined orbital
    #     l=2, rc=7.2031 Bohr: 4d-sz confined orbital
    #     l=0, rc=2.1250 Bohr: 4s-dz split-valence wave
    #     l=0, rc=6.1250 Bohr: 5s-dz split-valence wave
    #     l=1, rc=2.5469 Bohr: 4p-dz split-valence wave
    #     l=1, rc=8.7656 Bohr: 5p-dz split-valence wave
    #     l=2, rc=4.2344 Bohr: 4d-dz split-valence wave
    #     l=1, rc=10.0469 Bohr: p-type Gaussian polarization
    #   Number of RI-basis functions 0

  Se:
    name: Selenium
    id: 32bc71fdf0f79e2eec071fc2341e94af
    Z: 34.0
    valence: 6
    core: 28
    charge: 0.0
    file: /home/ubuntu/.pyenv/versions/cemea-env/lib/python3.10/site-packages/gpaw_data/setups/Se.LDA.gz
    compensation charges: {type: gauss,
                           rc: 0.27,
                           lmax: 2}
    cutoffs: {filter: 1.77,
              core: 2.67}
    projectors:
      #              energy  rcut
      - 4s(2.00)   -17.472   0.847
      - 4p(4.00)    -6.656   1.005
      -  s           9.739   0.847
      -  p          20.555   1.005
      -  d           0.000   0.847
  
    # LCAO basis set for Se:
    #   Name: dzp
    #   File: /home/ubuntu/.pyenv/versions/cemea-env/lib/python3.10/site-packages/gpaw_data/setups/Se.dzp.basis.gz
    #   Number of radial functions: 5
    #   Number of spherical harmonics: 13
    #     l=0, rc=5.7344 Bohr: 4s-sz confined orbital
    #     l=1, rc=7.2656 Bohr: 4p-sz confined orbital
    #     l=0, rc=3.1875 Bohr: 4s-dz split-valence wave
    #     l=1, rc=4.2188 Bohr: 4p-dz split-valence wave
    #     l=2, rc=7.2656 Bohr: d-type Gaussian polarization
    #   Number of RI-basis functions 0

  H:
    name: Hydrogen
    id: 4766778ce56282eaa64abeb28b7c1de3
    Z: 1.0
    valence: 1
    core: 0
    charge: 0.0
    file: /home/ubuntu/.pyenv/versions/cemea-env/lib/python3.10/site-packages/gpaw_data/setups/H.LDA.gz
    compensation charges: {type: gauss,
                           rc: 0.15,
                           lmax: 2}
    cutoffs: {filter: 0.85,
              core: 0.53}
    projectors:
      #              energy  rcut
      - 1s(1.00)    -6.353   0.476
      -  s          20.858   0.476
      -  p           0.000   0.476
  
    # LCAO basis set for H:
    #   Name: dzp
    #   File: /home/ubuntu/.pyenv/versions/cemea-env/lib/python3.10/site-packages/gpaw_data/setups/H.dzp.basis.gz
    #   Number of radial functions: 3
    #   Number of spherical harmonics: 5
    #     l=0, rc=6.4219 Bohr: 1s-sz confined orbital
    #     l=0, rc=3.6094 Bohr: 1s-dz split-valence wave
    #     l=1, rc=6.4219 Bohr: p-type Gaussian polarization
    #   Number of RI-basis functions 0

Reference energy: -902211.596592  # eV

Spin-paired calculation

Convergence criteria:
 Maximum [total energy] change in last 3 cyles: 1e-05 eV / valence electron
 Maximum integral of absolute [dens]ity change: 0.0001 electrons / valence electron
 Maximum integral of absolute [eigenst]ate change: 1e-05 eV^2 / valence electron
 Maximum number of scf [iter]ations: 333
 (Square brackets indicate name in SCF output, whereas a 'c' in
 the SCF output indicates the quantity has converged.)

Symmetries present (total): 1

  ( 1  0  0)
  ( 0  1  0)
  ( 0  0  1)

16 k-points: 4 x 4 x 1 Monkhorst-Pack grid
8 k-points in the irreducible part of the Brillouin zone
       k-points in crystal coordinates                weights
   0:     0.12500000   -0.37500000    0.00000000          2/16
   1:     0.12500000   -0.12500000    0.00000000          2/16
   2:     0.12500000    0.12500000    0.00000000          2/16
   3:     0.12500000    0.37500000    0.00000000          2/16
   4:     0.37500000   -0.37500000    0.00000000          2/16
   5:     0.37500000   -0.12500000    0.00000000          2/16
   6:     0.37500000    0.12500000    0.00000000          2/16
   7:     0.37500000    0.37500000    0.00000000          2/16

Wave functions: LCAO
  Diagonalizer: Serial LAPACK
  Atomic Correction: dense with blas
  Data-type: complex
 

Occupation numbers: Fermi-Dirac:
  width: 0.1000  # eV
 

Eigensolver
   LCAO using direct dense diagonalizer 

Densities:
  Coarse grid: 28*28*96 grid
  Fine grid: 56*56*192 grid
  Total Charge: 0.000000 

Density mixing:
  Method: separate
  Backend: pulay
  Linear mixing parameter: 0.05
  old densities: 5
  Damping of long wavelength oscillations: 50 

Hamiltonian:
  XC and Coulomb potentials evaluated on a 56*56*192 grid
  Using the LDA Exchange-Correlation functional
  Interpolation: tri-quintic (5. degree polynomial)
  Poisson solver: FastPoissonSolver using
    Stencil: 8*3+1=25 point O(h^6) finite-difference Laplacian
    FFT axes: [np.int64(0), np.int64(1), np.int64(2)]
    FST axes: []
 

Memory estimate:
  Process memory now: 1584.81 MiB
  Calculator: 123.93 MiB
    Density: 51.99 MiB
      Arrays: 14.93 MiB
      Localized functions: 31.31 MiB
      Mixer: 5.74 MiB
    Hamiltonian: 11.90 MiB
      Arrays: 9.76 MiB
      XC: 0.00 MiB
      Poisson: 0.00 MiB
      vbar: 2.14 MiB
    Wavefunctions: 60.04 MiB
      C [qnM]: 1.66 MiB
      S, T [2 x qmm]: 10.97 MiB
      P [aqMi]: 0.27 MiB
      BasisFunctions: 47.14 MiB
      Eigensolver: 0.00 MiB

Total number of cores used: 1

Number of atoms: 12
Number of atomic orbitals: 212
Number of bands in calculation: 64
Number of valence electrons: 99
Bands to converge: occupied

... initialized

Initializing position-dependent things.

Density initialized from atomic densities
                                   
                                   
                                   
                                   
                                   
                H                  
          Se      Se               
                    Se             
                                   
         Mo      Mo                
           MoSe    MoSe            
                                   
                Se      Se         
                                   
                                   
                                   
                                   

Atomic positions and initial magnetic moments

Positions:
   0 Mo     0.000000    0.000000    9.559400    ( 0.0000,  0.0000,  0.0000)
   1 Se     1.644500    0.949453    8.000000    ( 0.0000,  0.0000,  0.0000)
   2 Mo    -1.644500    2.848358    9.559400    ( 0.0000,  0.0000,  0.0000)
   3 Se    -1.644500    4.747263   11.118800    ( 0.0000,  0.0000,  0.0000)
   4 Se     0.000000    3.797810    8.000000    ( 0.0000,  0.0000,  0.0000)
   5 Mo     3.289000    0.000000    9.559400    ( 0.0000,  0.0000,  0.0000)
   6 Se     3.289000    1.898905   11.118800    ( 0.0000,  0.0000,  0.0000)
   7 Se     4.933500    0.949453    8.000000    ( 0.0000,  0.0000,  0.0000)
   8 Mo     1.644500    2.848358    9.559400    ( 0.0000,  0.0000,  0.0000)
   9 Se     1.644500    4.747263   11.118800    ( 0.0000,  0.0000,  0.0000)
  10 Se     3.289000    3.797810    8.000000    ( 0.0000,  0.0000,  0.0000)
  11 H      1.495000    2.416788   12.618800    ( 0.0000,  0.0000,  0.0000)

Unit cell:
           periodic     x           y           z      points  spacing
  1. axis:    yes    6.578000    0.000000    0.000000    28     0.2035
  2. axis:    yes   -3.289000    5.696715    0.000000    28     0.2035
  3. axis:    yes    0.000000    0.000000   19.118800    96     0.1992

  Lengths:   6.578000   6.578000  19.118800
  Angles:   90.000000  90.000000 120.000000

Effective grid spacing dv^(1/3) = 0.2119

     iter     time        total  log10-change:
                         energy   eigst   dens
iter:   1 17:18:41   -82.059465        c
iter:   2 17:18:53   -80.492439        c -1.19
iter:   3 17:19:06   -79.498519        c -1.26
iter:   4 17:19:20   -79.017613        c -1.32
iter:   5 17:19:32   -78.476282        c -1.41
iter:   6 17:19:45   -78.357657        c -1.52
iter:   7 17:19:58   -78.249788        c -1.73
iter:   8 17:20:11   -78.197454        c -1.93
iter:   9 17:20:25   -78.177180        c -2.12
iter:  10 17:20:38   -78.167986        c -2.27
iter:  11 17:20:50   -78.160915        c -2.35
iter:  12 17:21:04   -78.159542        c -2.75
iter:  13 17:21:17   -78.158245        c -2.89
iter:  14 17:21:30   -78.158043        c -3.10
iter:  15 17:21:42   -78.157802c       c -3.14
iter:  16 17:21:55   -78.157745c       c -3.24
iter:  17 17:22:07   -78.157769c       c -3.69
iter:  18 17:22:20   -78.157762c       c -3.80
iter:  19 17:22:33   -78.157744c       c -3.91
iter:  20 17:22:46   -78.157737c       c -4.09c

Converged after 20 iterations.

Dipole moment: (1.216822, -2.074268, -0.058789) |e|*Ang

Energy contributions relative to reference atoms: (reference = -902211.596592)

Kinetic:       +101.989268
Potential:     -108.964811
External:        +0.000000
XC:             -71.744268
Entropy (-ST):   -0.251693
Local:           +0.687921
SIC:             +0.000000
--------------------------
Free energy:    -78.283583
Extrapolated:   -78.157737

Showing only first 2 kpts
 Kpt  Band  Eigenvalues  Occupancy
  0    47     -1.52348    1.98849
  0    48     -1.30387    1.90110
  0    49     -1.17286    1.67670
  0    50     -0.61440    0.03821

  1    47     -1.57808    1.99332
  1    48     -1.37569    1.95052
  1    49     -1.08325    1.35830
  1    50     -0.75968    0.15372


Fermi level: -1.00826

No gap
No difference between direct/indirect transitions
Timing:                              incl.     excl.
-----------------------------------------------------------
Basic WFS set positions:             0.002     0.002   0.0% |
Basis functions set positions:       0.059     0.059   0.0% |
LCAO WFS Initialize:                 0.303     0.104   0.0% |
 Hamiltonian:                        0.199     0.000   0.0% |
  Atomic:                            0.076     0.001   0.0% |
   XC Correction:                    0.075     0.075   0.0% |
  Calculate atomic Hamiltonians:     0.009     0.009   0.0% |
  Communicate:                       0.000     0.000   0.0% |
  Hartree integrate/restrict:        0.005     0.005   0.0% |
  Initialize Hamiltonian:            0.001     0.001   0.0% |
  Poisson:                           0.076     0.002   0.0% |
   Communicate from 1D:              0.012     0.012   0.0% |
   Communicate from 2D:              0.011     0.011   0.0% |
   Communicate to 1D:                0.009     0.009   0.0% |
   Communicate to 2D:                0.011     0.011   0.0% |
   FFT 1D:                           0.006     0.006   0.0% |
   FFT 2D:                           0.024     0.024   0.0% |
  XC 3D grid:                        0.030     0.030   0.0% |
  vbar:                              0.003     0.003   0.0% |
P tci:                               0.569     0.569   0.2% |
SCF-cycle:                         247.875     0.040   0.0% |
 Density:                          172.414     0.001   0.0% |
  Atomic density matrices:           0.061     0.061   0.0% |
  Mix:                               3.551     3.551   1.4% ||
  Multipole moments:                 0.005     0.005   0.0% |
  Normalize:                         0.002     0.002   0.0% |
  Pseudo density:                  168.795     0.011   0.0% |
   Calculate density matrix:         1.720     1.720   0.7% |
   Construct density:              167.062   167.062  66.8% |--------------------------|
   Symmetrize density:               0.001     0.001   0.0% |
 Hamiltonian:                        4.272     0.002   0.0% |
  Atomic:                            1.494     0.020   0.0% |
   XC Correction:                    1.474     1.474   0.6% |
  Calculate atomic Hamiltonians:     0.149     0.149   0.1% |
  Communicate:                       0.000     0.000   0.0% |
  Hartree integrate/restrict:        0.320     0.320   0.1% |
  Poisson:                           1.387     0.058   0.0% |
   Communicate from 1D:              0.182     0.182   0.1% |
   Communicate from 2D:              0.196     0.196   0.1% |
   Communicate to 1D:                0.260     0.260   0.1% |
   Communicate to 2D:                0.203     0.203   0.1% |
   FFT 1D:                           0.106     0.106   0.0% |
   FFT 2D:                           0.381     0.381   0.2% |
  XC 3D grid:                        0.693     0.693   0.3% |
  vbar:                              0.226     0.226   0.1% |
 LCAO eigensolver:                  71.149     0.026   0.0% |
  Calculate projections:             1.262     1.262   0.5% |
  DenseAtomicCorrection:            10.278    10.278   4.1% |-|
  Distribute overlap matrix:         0.017     0.017   0.0% |
  Orbital Layouts:                  25.412    25.412  10.2% |---|
  Potential matrix:                 31.248    31.248  12.5% |----|
  Sum over cells:                    2.906     2.906   1.2% |
ST tci:                              0.290     0.290   0.1% |
Set symmetry:                        0.001     0.001   0.0% |
TCI: Evaluate splines:               0.358     0.358   0.1% |
mktci:                               0.011     0.011   0.0% |
Other:                               0.726     0.726   0.3% |
-----------------------------------------------------------
Total:                                       250.195 100.0%

Memory usage: 1.55 GiB
Date: Thu Feb 12 17:22:46 2026
