
  ___ ___ ___ _ _ _  
 |   |   |_  | | | | 
 | | | | | . | | | | 
 |__ |  _|___|_____|  25.7.0
 |___|_|             

User:   ubuntu@third-test
Date:   Wed Feb 18 02:53:51 2026
Arch:   x86_64
Pid:    2718679
CWD:    /mnt/vdd1/work/cemea/fairchem/src/fairchem/applications/ocx/mo_h_adsorption_workflow
Python: 3.10.16
gpaw:   /home/ubuntu/.pyenv/versions/cemea-env/lib/python3.10/site-packages/gpaw
_gpaw:  /home/ubuntu/.pyenv/versions/cemea-env/lib/python3.10/site-packages/
        _gpaw.cpython-310-x86_64-linux-gnu.so
ase:    /home/ubuntu/.pyenv/versions/cemea-env/lib/python3.10/site-packages/ase (version 3.27.0)
numpy:  /home/ubuntu/.pyenv/versions/cemea-env/lib/python3.10/site-packages/numpy (version 2.2.6)
scipy:  /home/ubuntu/.pyenv/versions/cemea-env/lib/python3.10/site-packages/scipy (version 1.15.3)
libxc:  2.x.y
units:  Angstrom and eV
cores: 1
OpenMP: False
OMP_NUM_THREADS: 1

Input parameters:
  basis: dzp
  convergence: {density: 0.0001,
                eigenstates: 1e-05,
                energy: 1e-05}
  kpts: [4 4 1]
  mode: lcao

System changes: positions, numbers, cell, pbc, initial_charges, initial_magmoms 

Initialize ...

species:
  Mo:
    name: Molybdenum
    id: ac24daaf086600a00ce6d19a74574df1
    Z: 42.0
    valence: 14
    core: 28
    charge: 0.0
    file: /home/ubuntu/.pyenv/versions/cemea-env/lib/python3.10/site-packages/gpaw_data/setups/Mo.LDA.gz
    compensation charges: {type: gauss,
                           rc: 0.38,
                           lmax: 2}
    cutoffs: {filter: 2.16,
              core: 1.42}
    projectors:
      #              energy  rcut
      - 4s(2.00)   -64.384   1.238
      - 5s(1.00)    -4.319   1.238
      - 4p(6.00)   -38.595   1.296
      - 5p(0.00)    -1.161   1.296
      - 4d(5.00)    -3.933   1.296
      -  d          23.278   1.296
  
    # LCAO basis set for Mo:
    #   Name: dzp
    #   File: /home/ubuntu/.pyenv/versions/cemea-env/lib/python3.10/site-packages/gpaw_data/setups/Mo.dzp.basis.gz
    #   Number of radial functions: 11
    #   Number of spherical harmonics: 29
    #     l=0, rc=3.5469 Bohr: 4s-sz confined orbital
    #     l=0, rc=10.0469 Bohr: 5s-sz confined orbital
    #     l=1, rc=4.0781 Bohr: 4p-sz confined orbital
    #     l=1, rc=14.0938 Bohr: 5p-sz confined orbital
    #     l=2, rc=7.2031 Bohr: 4d-sz confined orbital
    #     l=0, rc=2.1250 Bohr: 4s-dz split-valence wave
    #     l=0, rc=6.1250 Bohr: 5s-dz split-valence wave
    #     l=1, rc=2.5469 Bohr: 4p-dz split-valence wave
    #     l=1, rc=8.7656 Bohr: 5p-dz split-valence wave
    #     l=2, rc=4.2344 Bohr: 4d-dz split-valence wave
    #     l=1, rc=10.0469 Bohr: p-type Gaussian polarization
    #   Number of RI-basis functions 0

  Pd:
    name: Palladium
    id: e532e18c0482708fc2e61045fa7bdb18
    Z: 46.0
    valence: 16
    core: 30
    charge: 0.0
    file: /home/ubuntu/.pyenv/versions/cemea-env/lib/python3.10/site-packages/gpaw_data/setups/Pd.LDA.gz
    compensation charges: {type: gauss,
                           rc: 0.38,
                           lmax: 2}
    cutoffs: {filter: 2.38,
              core: 2.28}
    projectors:
      #              energy  rcut
      - 5s(0.00)    -3.604   1.228
      - 4p(6.00)   -51.371   1.360
      - 5p(0.00)    -0.356   1.360
      - 4d(10.00)    -4.308   1.228
      -  s          23.607   1.228
      -  d          22.904   1.228
  
    # LCAO basis set for Pd:
    #   Name: dzp
    #   File: /home/ubuntu/.pyenv/versions/cemea-env/lib/python3.10/site-packages/gpaw_data/setups/Pd.dzp.basis.gz
    #   Number of radial functions: 9
    #   Number of spherical harmonics: 27
    #     l=0, rc=10.0312 Bohr: 5s-sz confined orbital
    #     l=1, rc=3.5312 Bohr: 4p-sz confined orbital
    #     l=1, rc=16.0000 Bohr: 5p-sz confined orbital
    #     l=2, rc=6.2031 Bohr: 4d-sz confined orbital
    #     l=0, rc=6.0156 Bohr: 5s-dz split-valence wave
    #     l=1, rc=2.4062 Bohr: 4p-dz split-valence wave
    #     l=1, rc=9.9375 Bohr: 5p-dz split-valence wave
    #     l=2, rc=3.6719 Bohr: 4d-dz split-valence wave
    #     l=1, rc=10.0312 Bohr: p-type Gaussian polarization
    #   Number of RI-basis functions 0

  N:
    name: Nitrogen
    id: c467cdfa1b75f62c8f7a0469921b1cfb
    Z: 7.0
    valence: 5
    core: 2
    charge: 0.0
    file: /home/ubuntu/.pyenv/versions/cemea-env/lib/python3.10/site-packages/gpaw_data/setups/N.LDA.gz
    compensation charges: {type: gauss,
                           rc: 0.18,
                           lmax: 2}
    cutoffs: {filter: 1.11,
              core: 0.96}
    projectors:
      #              energy  rcut
      - 2s(2.00)   -18.420   0.603
      - 2p(3.00)    -7.237   0.529
      -  s           8.791   0.603
      -  p          19.974   0.529
      -  d           0.000   0.577
  
    # LCAO basis set for N:
    #   Name: dzp
    #   File: /home/ubuntu/.pyenv/versions/cemea-env/lib/python3.10/site-packages/gpaw_data/setups/N.dzp.basis.gz
    #   Number of radial functions: 5
    #   Number of spherical harmonics: 13
    #     l=0, rc=4.8594 Bohr: 2s-sz confined orbital
    #     l=1, rc=6.0625 Bohr: 2p-sz confined orbital
    #     l=0, rc=2.6094 Bohr: 2s-dz split-valence wave
    #     l=1, rc=3.2656 Bohr: 2p-dz split-valence wave
    #     l=2, rc=6.0625 Bohr: d-type Gaussian polarization
    #   Number of RI-basis functions 0

  H:
    name: Hydrogen
    id: 4766778ce56282eaa64abeb28b7c1de3
    Z: 1.0
    valence: 1
    core: 0
    charge: 0.0
    file: /home/ubuntu/.pyenv/versions/cemea-env/lib/python3.10/site-packages/gpaw_data/setups/H.LDA.gz
    compensation charges: {type: gauss,
                           rc: 0.15,
                           lmax: 2}
    cutoffs: {filter: 0.85,
              core: 0.53}
    projectors:
      #              energy  rcut
      - 1s(1.00)    -6.353   0.476
      -  s          20.858   0.476
      -  p           0.000   0.476
  
    # LCAO basis set for H:
    #   Name: dzp
    #   File: /home/ubuntu/.pyenv/versions/cemea-env/lib/python3.10/site-packages/gpaw_data/setups/H.dzp.basis.gz
    #   Number of radial functions: 3
    #   Number of spherical harmonics: 5
    #     l=0, rc=6.4219 Bohr: 1s-sz confined orbital
    #     l=0, rc=3.6094 Bohr: 1s-dz split-valence wave
    #     l=1, rc=6.4219 Bohr: p-type Gaussian polarization
    #   Number of RI-basis functions 0

Reference energy: -913132.396093  # eV

Spin-paired calculation

Convergence criteria:
 Maximum [total energy] change in last 3 cyles: 1e-05 eV / valence electron
 Maximum integral of absolute [dens]ity change: 0.0001 electrons / valence electron
 Maximum integral of absolute [eigenst]ate change: 1e-05 eV^2 / valence electron
 Maximum number of scf [iter]ations: 333
 (Square brackets indicate name in SCF output, whereas a 'c' in
 the SCF output indicates the quantity has converged.)

Symmetries present (total): 2

  ( 1  0  0)  ( 0  1  0)
  ( 0  1  0)  ( 1  0  0)
  ( 0  0  1)  ( 0  0  1)

16 k-points: 4 x 4 x 1 Monkhorst-Pack grid
6 k-points in the irreducible part of the Brillouin zone
       k-points in crystal coordinates                weights
   0:     0.12500000   -0.12500000    0.00000000          2/16
   1:     0.12500000    0.12500000    0.00000000          2/16
   2:     0.37500000   -0.37500000    0.00000000          2/16
   3:     0.37500000   -0.12500000    0.00000000          4/16
   4:     0.37500000    0.12500000    0.00000000          4/16
   5:     0.37500000    0.37500000    0.00000000          2/16

Wave functions: LCAO
  Diagonalizer: Serial LAPACK
  Atomic Correction: dense with blas
  Data-type: complex
 

Occupation numbers: Fermi-Dirac:
  width: 0.1000  # eV
 

Eigensolver
   LCAO using direct dense diagonalizer 

Densities:
  Coarse grid: 40*40*92 grid
  Fine grid: 80*80*184 grid
  Total Charge: 0.000000 

Density mixing:
  Method: separate
  Backend: pulay
  Linear mixing parameter: 0.05
  old densities: 5
  Damping of long wavelength oscillations: 50 

Hamiltonian:
  XC and Coulomb potentials evaluated on a 80*80*184 grid
  Using the LDA Exchange-Correlation functional
  Interpolation: tri-quintic (5. degree polynomial)
  Poisson solver: FastPoissonSolver using
    Stencil: 6*3+1=19 point O(h^6) finite-difference Laplacian
    FFT axes: [np.int64(0), np.int64(1), np.int64(2)]
    FST axes: []
 

Memory estimate:
  Process memory now: 1340.54 MiB
  Calculator: 204.78 MiB
    Density: 81.17 MiB
      Arrays: 29.20 MiB
      Localized functions: 40.74 MiB
      Mixer: 11.23 MiB
    Hamiltonian: 21.80 MiB
      Arrays: 19.09 MiB
      XC: 0.00 MiB
      Poisson: 0.00 MiB
      vbar: 2.70 MiB
    Wavefunctions: 101.81 MiB
      C [qnM]: 2.23 MiB
      S, T [2 x qmm]: 15.08 MiB
      P [aqMi]: 0.33 MiB
      BasisFunctions: 84.17 MiB
      Eigensolver: 0.00 MiB

Total number of cores used: 1

Number of atoms: 13
Number of atomic orbitals: 287
Number of bands in calculation: 85
Number of valence electrons: 135
Bands to converge: occupied

... initialized

Initializing position-dependent things.

Density initialized from atomic densities
      .-------------------.  
     /|                   |  
    / |                   |  
   /  |                   |  
  /   |                   |  
 *    |                   |  
 |    |                   |  
 |    |                   |  
 |    |                   |  
 |    |                   |  
 |    |                   |  
 |    |   MH        Mo    |  
 |    |                   |  
 |    |Pd        Mo       |  
 |    |   N         N     |  
 |  Mo|       Mo          |  
 |    |N         N        |  
 Mo   |    Mo             |  
 |    |                   |  
 |    |                   |  
 |    |                   |  
 |    |                   |  
 |    .-------------------.  
 |   /                   /   
 |  /                   /    
 | /                   /     
 |/                   /      
 *-------------------*       

Atomic positions and initial magnetic moments

Positions:
   0 Mo     0.000000    0.000000    8.000000    ( 0.0000,  0.0000,  0.0000)
   1 Pd     2.080000    2.080000   10.080000    ( 0.0000,  0.0000,  0.0000)
   2 N      2.080000    2.080000    8.000000    ( 0.0000,  0.0000,  0.0000)
   3 Mo     0.000000    4.160000    8.000000    ( 0.0000,  0.0000,  0.0000)
   4 Mo     2.080000    6.240000   10.080000    ( 0.0000,  0.0000,  0.0000)
   5 N      2.080000    6.240000    8.000000    ( 0.0000,  0.0000,  0.0000)
   6 Mo     4.160000    0.000000    8.000000    ( 0.0000,  0.0000,  0.0000)
   7 Mo     6.240000    2.080000   10.080000    ( 0.0000,  0.0000,  0.0000)
   8 N      6.240000    2.080000    8.000000    ( 0.0000,  0.0000,  0.0000)
   9 Mo     4.160000    4.160000    8.000000    ( 0.0000,  0.0000,  0.0000)
  10 Mo     6.240000    6.240000   10.080000    ( 0.0000,  0.0000,  0.0000)
  11 N      6.240000    6.240000    8.000000    ( 0.0000,  0.0000,  0.0000)
  12 H      3.466667    3.466667   11.580000    ( 0.0000,  0.0000,  0.0000)

Unit cell:
           periodic     x           y           z      points  spacing
  1. axis:    yes    8.320000    0.000000    0.000000    40     0.2080
  2. axis:    yes    0.000000    8.320000    0.000000    40     0.2080
  3. axis:    yes    0.000000    0.000000   18.080000    92     0.1965

  Lengths:   8.320000   8.320000  18.080000
  Angles:   90.000000  90.000000  90.000000

Effective grid spacing dv^(1/3) = 0.2041

     iter     time        total  log10-change:
                         energy   eigst   dens
iter:   1 02:55:18   -90.545738        c
iter:   2 02:56:35   -84.407971        c -0.87
iter:   3 02:58:00   -81.043532        c -0.98
iter:   4 02:59:30   -75.831085        c -1.00
iter:   5 03:01:01   -74.899404        c -1.18
iter:   6 03:02:31   -73.316434        c -1.24
iter:   7 03:04:00   -72.753286        c -1.39
iter:   8 03:05:27   -72.602334        c -1.63
iter:   9 03:06:48   -72.545545        c -1.72
iter:  10 03:08:09   -72.489568        c -1.72
iter:  11 03:09:34   -72.401531        c -1.81
iter:  12 03:11:01   -72.392557        c -2.03
iter:  13 03:12:28   -72.387488        c -2.06
iter:  14 03:13:50   -72.373482        c -2.08
iter:  15 03:15:09   -72.366536        c -2.19
iter:  16 03:16:34   -72.362276        c -2.23
iter:  17 03:17:51   -72.357079        c -2.30
iter:  18 03:19:10   -72.354650        c -2.39
iter:  19 03:20:38   -72.352035        c -2.45
iter:  20 03:22:03   -72.351136        c -2.60
iter:  21 03:23:28   -72.350623        c -2.71
iter:  22 03:24:44   -72.350464c       c -2.76
iter:  23 03:26:10   -72.349958c       c -2.79
iter:  24 03:27:36   -72.349983c       c -2.85
iter:  25 03:29:03   -72.349761c       c -2.96
iter:  26 03:30:23   -72.349872c       c -2.97
iter:  27 03:31:46   -72.349943c       c -3.01
iter:  28 03:33:08   -72.349871c       c -3.03
iter:  29 03:34:32   -72.349753c       c -3.07
iter:  30 03:36:02   -72.349829c       c -3.07
iter:  31 03:37:24   -72.349670c       c -3.12
iter:  32 03:38:49   -72.349639c       c -3.10
iter:  33 03:40:06   -72.349553c       c -3.16
iter:  34 03:41:23   -72.349478c       c -3.20
iter:  35 03:42:53   -72.349318c       c -3.22
iter:  36 03:44:20   -72.349258c       c -3.25
iter:  37 03:45:46   -72.349137c       c -3.38
iter:  38 03:47:04   -72.349110c       c -3.41
iter:  39 03:48:34   -72.349028c       c -3.48
iter:  40 03:49:56   -72.349013c       c -3.49
iter:  41 03:51:13   -72.348942c       c -3.55
iter:  42 03:52:38   -72.348950c       c -3.60
iter:  43 03:54:05   -72.348900c       c -3.61
iter:  44 03:55:28   -72.348915c       c -3.64
iter:  45 03:56:55   -72.348911c       c -3.67
iter:  46 03:58:15   -72.348924c       c -3.67
iter:  47 03:59:45   -72.348902c       c -3.72
iter:  48 04:01:09   -72.348926c       c -3.73
iter:  49 04:02:36   -72.348895c       c -3.71
iter:  50 04:04:02   -72.348913c       c -3.79
iter:  51 04:05:30   -72.348920c       c -3.77
iter:  52 04:06:51   -72.348918c       c -3.81
iter:  53 04:08:15   -72.348918c       c -3.80
iter:  54 04:09:43   -72.348929c       c -3.88
iter:  55 04:11:13   -72.348908c       c -3.89
iter:  56 04:12:38   -72.348928c       c -3.91
iter:  57 04:14:03   -72.348944c       c -3.96
iter:  58 04:15:21   -72.348936c       c -4.06c

Converged after 58 iterations.

Dipole moment: (-5.069924, -5.069924, 0.103624) |e|*Ang

Energy contributions relative to reference atoms: (reference = -913132.396093)

Kinetic:       -220.110459
Potential:     +153.292428
External:        +0.000000
XC:              -7.003643
Entropy (-ST):   -1.367010
Local:           +2.156244
SIC:             +0.000000
--------------------------
Free energy:    -73.032441
Extrapolated:   -72.348936

Showing only first 2 kpts
 Kpt  Band  Eigenvalues  Occupancy
  0    65     -2.34510    1.24464
  0    66     -2.32956    1.17035
  0    67     -2.28585    0.95353
  0    68     -2.26149    0.83323

  1    65     -2.33656    1.20411
  1    66     -2.32897    1.16750
  1    67     -2.28323    0.94044
  1    68     -2.26076    0.82971


Fermi level: -2.29516

Gap: 0.012 eV
Transition (v -> c):
  (s=0, k=4, n=66, [0.38, 0.12, 0.00]) -> (s=0, k=2, n=67, [0.38, -0.38, 0.00])
Direct/indirect transitions are different
Direct gap: 0.044 eV
Transition at: (s=0, k=0, n=66, [0.12, -0.12, 0.00])
Timing:                              incl.     excl.
-----------------------------------------------------------
Basic WFS set positions:             0.001     0.001   0.0% |
Basis functions set positions:       0.097     0.097   0.0% |
LCAO WFS Initialize:                 0.393     0.060   0.0% |
 Hamiltonian:                        0.334     0.000   0.0% |
  Atomic:                            0.079     0.001   0.0% |
   XC Correction:                    0.078     0.078   0.0% |
  Calculate atomic Hamiltonians:     0.008     0.008   0.0% |
  Communicate:                       0.000     0.000   0.0% |
  Hartree integrate/restrict:        0.029     0.029   0.0% |
  Initialize Hamiltonian:            0.000     0.000   0.0% |
  Poisson:                           0.130     0.006   0.0% |
   Communicate from 1D:              0.019     0.019   0.0% |
   Communicate from 2D:              0.017     0.017   0.0% |
   Communicate to 1D:                0.020     0.020   0.0% |
   Communicate to 2D:                0.022     0.022   0.0% |
   FFT 1D:                           0.018     0.018   0.0% |
   FFT 2D:                           0.027     0.027   0.0% |
  XC 3D grid:                        0.060     0.060   0.0% |
  vbar:                              0.028     0.028   0.0% |
P tci:                               0.569     0.569   0.0% |
SCF-cycle:                        4884.573     0.079   0.0% |
 Density:                          579.941     0.002   0.0% |
  Atomic density matrices:           0.200     0.200   0.0% |
  Mix:                              19.601    19.601   0.4% |
  Multipole moments:                 0.015     0.015   0.0% |
  Normalize:                         0.007     0.007   0.0% |
  Pseudo density:                  560.116     0.037   0.0% |
   Calculate density matrix:        11.069    11.069   0.2% |
   Construct density:              548.777   548.777  11.2% |---|
   Symmetrize density:               0.232     0.232   0.0% |
 Hamiltonian:                       20.140     0.005   0.0% |
  Atomic:                            4.650     0.066   0.0% |
   XC Correction:                    4.584     4.584   0.1% |
  Calculate atomic Hamiltonians:     0.501     0.501   0.0% |
  Communicate:                       0.000     0.000   0.0% |
  Hartree integrate/restrict:        2.118     2.118   0.0% |
  Poisson:                           7.712     0.382   0.0% |
   Communicate from 1D:              1.160     1.160   0.0% |
   Communicate from 2D:              1.067     1.067   0.0% |
   Communicate to 1D:                0.946     0.946   0.0% |
   Communicate to 2D:                1.330     1.330   0.0% |
   FFT 1D:                           1.060     1.060   0.0% |
   FFT 2D:                           1.769     1.769   0.0% |
  XC 3D grid:                        4.187     4.187   0.1% |
  vbar:                              0.968     0.968   0.0% |
 LCAO eigensolver:                4284.413     0.103   0.0% |
  Calculate projections:            13.878    13.878   0.3% |
  DenseAtomicCorrection:           110.984   110.984   2.3% ||
  Distribute overlap matrix:         0.065     0.065   0.0% |
  Orbital Layouts:                4011.303  4011.303  82.0% |--------------------------------|
  Potential matrix:                134.601   134.601   2.8% ||
  Sum over cells:                   13.480    13.480   0.3% |
ST tci:                              0.329     0.329   0.0% |
Set symmetry:                        0.001     0.001   0.0% |
TCI: Evaluate splines:               0.828     0.828   0.0% |
mktci:                               0.008     0.008   0.0% |
Other:                               3.473     3.473   0.1% |
-----------------------------------------------------------
Total:                                      4890.273 100.0%

Memory usage: 1.31 GiB
Date: Wed Feb 18 04:15:21 2026
