
  ___ ___ ___ _ _ _  
 |   |   |_  | | | | 
 | | | | | . | | | | 
 |__ |  _|___|_____|  25.7.0
 |___|_|             

User:   mikei@Z790-AORUS-ELITE-AX
Date:   Fri Mar  6 15:27:57 2026
Arch:   x86_64
Pid:    89048
CWD:    /home/mikei/Dokumenty/code/cemea/ocx
Python: 3.10.16
gpaw:   /home/mikei/.pyenv/versions/cemea-env/lib/python3.10/site-packages/gpaw
_gpaw:  /home/mikei/.pyenv/versions/cemea-env/lib/python3.10/site-packages/
        _gpaw.cpython-310-x86_64-linux-gnu.so
ase:    /home/mikei/.pyenv/versions/cemea-env/lib/python3.10/site-packages/ase (version 3.27.0)
numpy:  /home/mikei/.pyenv/versions/cemea-env/lib/python3.10/site-packages/numpy (version 2.2.6)
scipy:  /home/mikei/.pyenv/versions/cemea-env/lib/python3.10/site-packages/scipy (version 1.15.3)
libxc:  2.x.y
units:  Angstrom and eV
cores: 1
OpenMP: False
OMP_NUM_THREADS: 1

Input parameters:
  basis: dzp
  convergence: {density: 0.0001,
                eigenstates: 1e-05,
                energy: 1e-05}
  kpts: [4 4 1]
  mode: lcao

System changes: positions, numbers, cell, pbc, initial_charges, initial_magmoms 

Initialize ...

species:
  Ni:
    name: Nickel
    id: 1802175e8de9ea26d9f4394ec1a7d564
    Z: 28.0
    valence: 16
    core: 12
    charge: 0.0
    file: /home/mikei/.pyenv/versions/cemea-env/lib/python3.10/site-packages/gpaw_data/setups/Ni.LDA.gz
    compensation charges: {type: gauss,
                           rc: 0.36,
                           lmax: 2}
    cutoffs: {filter: 2.14,
              core: 1.98}
    projectors:
      #              energy  rcut
      - 4s(2.00)    -5.858   1.164
      - 3p(6.00)   -71.266   1.207
      - 4p(0.00)    -1.338   1.207
      - 3d(8.00)    -9.141   1.138
      -  s          21.353   1.164
      -  d          18.071   1.138
  
    # LCAO basis set for Ni:
    #   Name: dzp
    #   File: /home/mikei/.pyenv/versions/cemea-env/lib/python3.10/site-packages/gpaw_data/setups/Ni.dzp.basis.gz
    #   Number of radial functions: 9
    #   Number of spherical harmonics: 27
    #     l=0, rc=8.5156 Bohr: 4s-sz confined orbital
    #     l=1, rc=2.9375 Bohr: 3p-sz confined orbital
    #     l=1, rc=12.4062 Bohr: 4p-sz confined orbital
    #     l=2, rc=4.6875 Bohr: 3d-sz confined orbital
    #     l=0, rc=4.9688 Bohr: 4s-dz split-valence wave
    #     l=1, rc=2.0781 Bohr: 3p-dz split-valence wave
    #     l=1, rc=7.5469 Bohr: 4p-dz split-valence wave
    #     l=2, rc=2.9375 Bohr: 3d-dz split-valence wave
    #     l=1, rc=8.5156 Bohr: p-type Gaussian polarization
    #   Number of RI-basis functions 0

  Mo:
    name: Molybdenum
    id: ac24daaf086600a00ce6d19a74574df1
    Z: 42.0
    valence: 14
    core: 28
    charge: 0.0
    file: /home/mikei/.pyenv/versions/cemea-env/lib/python3.10/site-packages/gpaw_data/setups/Mo.LDA.gz
    compensation charges: {type: gauss,
                           rc: 0.38,
                           lmax: 2}
    cutoffs: {filter: 2.16,
              core: 1.42}
    projectors:
      #              energy  rcut
      - 4s(2.00)   -64.384   1.238
      - 5s(1.00)    -4.319   1.238
      - 4p(6.00)   -38.595   1.296
      - 5p(0.00)    -1.161   1.296
      - 4d(5.00)    -3.933   1.296
      -  d          23.278   1.296
  
    # LCAO basis set for Mo:
    #   Name: dzp
    #   File: /home/mikei/.pyenv/versions/cemea-env/lib/python3.10/site-packages/gpaw_data/setups/Mo.dzp.basis.gz
    #   Number of radial functions: 11
    #   Number of spherical harmonics: 29
    #     l=0, rc=3.5469 Bohr: 4s-sz confined orbital
    #     l=0, rc=10.0469 Bohr: 5s-sz confined orbital
    #     l=1, rc=4.0781 Bohr: 4p-sz confined orbital
    #     l=1, rc=14.0938 Bohr: 5p-sz confined orbital
    #     l=2, rc=7.2031 Bohr: 4d-sz confined orbital
    #     l=0, rc=2.1250 Bohr: 4s-dz split-valence wave
    #     l=0, rc=6.1250 Bohr: 5s-dz split-valence wave
    #     l=1, rc=2.5469 Bohr: 4p-dz split-valence wave
    #     l=1, rc=8.7656 Bohr: 5p-dz split-valence wave
    #     l=2, rc=4.2344 Bohr: 4d-dz split-valence wave
    #     l=1, rc=10.0469 Bohr: p-type Gaussian polarization
    #   Number of RI-basis functions 0

  B:
    name: Boron
    id: 02e2e0e88ef95f403158802f6b0f4231
    Z: 5.0
    valence: 3
    core: 2
    charge: 0.0
    file: /home/mikei/.pyenv/versions/cemea-env/lib/python3.10/site-packages/gpaw_data/setups/B.LDA.gz
    compensation charges: {type: gauss,
                           rc: 0.20,
                           lmax: 2}
    cutoffs: {filter: 1.14,
              core: 1.42}
    projectors:
      #              energy  rcut
      - 2s(2.00)    -9.383   0.635
      - 2p(1.00)    -3.714   0.635
      -  s          17.828   0.635
      -  p          23.498   0.635
      -  d           0.000   0.635
  
    # LCAO basis set for B:
    #   Name: dzp
    #   File: /home/mikei/.pyenv/versions/cemea-env/lib/python3.10/site-packages/gpaw_data/setups/B.dzp.basis.gz
    #   Number of radial functions: 5
    #   Number of spherical harmonics: 13
    #     l=0, rc=6.6719 Bohr: 2s-sz confined orbital
    #     l=1, rc=8.2188 Bohr: 2p-sz confined orbital
    #     l=0, rc=3.7500 Bohr: 2s-dz split-valence wave
    #     l=1, rc=4.6094 Bohr: 2p-dz split-valence wave
    #     l=2, rc=8.2188 Bohr: d-type Gaussian polarization
    #   Number of RI-basis functions 0

  Ir:
    name: Iridium
    id: ca472fc5a58bba06e8299391bae24b72
    Z: 77.0
    valence: 15
    core: 62
    charge: 0.0
    file: /home/mikei/.pyenv/versions/cemea-env/lib/python3.10/site-packages/gpaw_data/setups/Ir.LDA.gz
    compensation charges: {type: gauss,
                           rc: 0.40,
                           lmax: 2}
    cutoffs: {filter: 2.40,
              core: 2.36}
    projectors:
      #              energy  rcut
      - 6s(2.00)    -6.559   1.296
      - 5p(6.00)   -54.966   1.328
      - 6p(0.00)    -1.355   1.328
      - 5d(7.00)    -7.377   1.286
      -  s          20.652   1.296
      -  d          19.835   1.286
  
    # LCAO basis set for Ir:
    #   Name: dzp
    #   File: /home/mikei/.pyenv/versions/cemea-env/lib/python3.10/site-packages/gpaw_data/setups/Ir.dzp.basis.gz
    #   Number of radial functions: 9
    #   Number of spherical harmonics: 27
    #     l=0, rc=8.4062 Bohr: 6s-sz confined orbital
    #     l=1, rc=3.6406 Bohr: 5p-sz confined orbital
    #     l=1, rc=12.7031 Bohr: 6p-sz confined orbital
    #     l=2, rc=6.0469 Bohr: 5d-sz confined orbital
    #     l=0, rc=4.9844 Bohr: 6s-dz split-valence wave
    #     l=1, rc=2.4062 Bohr: 5p-dz split-valence wave
    #     l=1, rc=7.7969 Bohr: 6p-dz split-valence wave
    #     l=2, rc=3.5938 Bohr: 5d-dz split-valence wave
    #     l=1, rc=8.4062 Bohr: p-type Gaussian polarization
    #   Number of RI-basis functions 0

Reference energy: -3866400.112448  # eV

Spin-paired calculation

Convergence criteria:
 Maximum [total energy] change in last 3 cyles: 1e-05 eV / valence electron
 Maximum integral of absolute [dens]ity change: 0.0001 electrons / valence electron
 Maximum integral of absolute [eigenst]ate change: 1e-05 eV^2 / valence electron
 Maximum number of scf [iter]ations: 333
 (Square brackets indicate name in SCF output, whereas a 'c' in
 the SCF output indicates the quantity has converged.)

Symmetries present (total): 1

  ( 1  0  0)
  ( 0  1  0)
  ( 0  0  1)

16 k-points: 4 x 4 x 1 Monkhorst-Pack grid
8 k-points in the irreducible part of the Brillouin zone
       k-points in crystal coordinates                weights
   0:     0.12500000   -0.37500000    0.00000000          2/16
   1:     0.12500000   -0.12500000    0.00000000          2/16
   2:     0.12500000    0.12500000    0.00000000          2/16
   3:     0.12500000    0.37500000    0.00000000          2/16
   4:     0.37500000   -0.37500000    0.00000000          2/16
   5:     0.37500000   -0.12500000    0.00000000          2/16
   6:     0.37500000    0.12500000    0.00000000          2/16
   7:     0.37500000    0.37500000    0.00000000          2/16

Wave functions: LCAO
  Diagonalizer: Serial LAPACK
  Atomic Correction: dense with blas
  Data-type: complex
 

Occupation numbers: Fermi-Dirac:
  width: 0.1000  # eV
 

Eigensolver
   LCAO using direct dense diagonalizer 

Densities:
  Coarse grid: 32*32*128 grid
  Fine grid: 64*64*256 grid
  Total Charge: 0.000000 

Density mixing:
  Method: separate
  Backend: pulay
  Linear mixing parameter: 0.05
  old densities: 5
  Damping of long wavelength oscillations: 50 

Hamiltonian:
  XC and Coulomb potentials evaluated on a 64*64*256 grid
  Using the LDA Exchange-Correlation functional
  Interpolation: tri-quintic (5. degree polynomial)
  Poisson solver: FastPoissonSolver using
    Stencil: 8*3+1=25 point O(h^6) finite-difference Laplacian
    FFT axes: [np.int64(0), np.int64(1), np.int64(2)]
    FST axes: []
 

Memory estimate:
  Process memory now: 4818.40 MiB
  Calculator: 932.25 MiB
    Density: 196.53 MiB
      Arrays: 26.00 MiB
      Localized functions: 160.53 MiB
      Mixer: 10.00 MiB
    Hamiltonian: 29.21 MiB
      Arrays: 17.00 MiB
      XC: 0.00 MiB
      Poisson: 0.00 MiB
      vbar: 12.21 MiB
    Wavefunctions: 706.51 MiB
      C [qnM]: 65.05 MiB
      S, T [2 x qmm]: 380.25 MiB
      P [aqMi]: 8.04 MiB
      BasisFunctions: 253.17 MiB
      Eigensolver: 0.00 MiB

Total number of cores used: 1

Number of atoms: 48
Number of atomic orbitals: 1248
Number of bands in calculation: 427
Number of valence electrons: 704
Bands to converge: occupied

... initialized

Initializing position-dependent things.

Density initialized from atomic densities
                                         
                                         
                                         
                                         
                                         
                Ir   Ir                  
              Ir    Ir                   
              B      B                   
            B      B                     
         Mo     Mo                       
                                         
       Mo      Moi    Ni    Ni           
                                         
           Ni    NNi   NNi   Ni          
       Ni   NNi   NNi   Ni               
                                         
        Ni    Ni   NNi   Ni    Ni        
               Ni    Ni    Ni            
           Ni    Ni    Ni                
                Ni    Ni    Ni           
           Ni     Ni    Ni               
       Ni    Ni    Ni                    
                                         
                                         
                                         
                                         

Atomic positions and initial magnetic moments

Positions:
   0 Ni     0.000000    0.000000    8.000000    ( 0.0000,  0.0000,  0.0000)
   1 Ni     2.489016    0.000000    8.000000    ( 0.0000,  0.0000,  0.0000)
   2 Ni     4.978032    0.000000    8.000000    ( 0.0000,  0.0000,  0.0000)
   3 Ni     1.244508    2.155551    8.000000    ( 0.0000,  0.0000,  0.0000)
   4 Ni     3.733524    2.155551    8.000000    ( 0.0000,  0.0000,  0.0000)
   5 Ni     6.222540    2.155551    8.000000    ( 0.0000,  0.0000,  0.0000)
   6 Ni     2.489016    4.311102    8.000000    ( 0.0000,  0.0000,  0.0000)
   7 Ni     4.978032    4.311102    8.000000    ( 0.0000,  0.0000,  0.0000)
   8 Ni     7.467048    4.311102    8.000000    ( 0.0000,  0.0000,  0.0000)
   9 Ni     1.244508    0.718517   10.032273    ( 0.0000,  0.0000,  0.0000)
  10 Ni     3.733524    0.718517   10.032273    ( 0.0000,  0.0000,  0.0000)
  11 Ni     6.222540    0.718517   10.032273    ( 0.0000,  0.0000,  0.0000)
  12 Ni     2.489016    2.874068   10.032273    ( 0.0000,  0.0000,  0.0000)
  13 Ni     4.978032    2.874068   10.032273    ( 0.0000,  0.0000,  0.0000)
  14 Ni     7.467048    2.874068   10.032273    ( 0.0000,  0.0000,  0.0000)
  15 Ni     3.733524    5.029619   10.032273    ( 0.0000,  0.0000,  0.0000)
  16 Ni     6.222540    5.029619   10.032273    ( 0.0000,  0.0000,  0.0000)
  17 Ni     8.711556    5.029619   10.032273    ( 0.0000,  0.0000,  0.0000)
  18 Ni     0.000000    1.437034   12.064546    ( 0.0000,  0.0000,  0.0000)
  19 Ni     2.489016    1.437034   12.064546    ( 0.0000,  0.0000,  0.0000)
  20 Ni     4.978032    1.437034   12.064546    ( 0.0000,  0.0000,  0.0000)
  21 Ni     1.244508    3.592585   12.064546    ( 0.0000,  0.0000,  0.0000)
  22 Ni     3.733524    3.592585   12.064546    ( 0.0000,  0.0000,  0.0000)
  23 Ni     6.222540    3.592585   12.064546    ( 0.0000,  0.0000,  0.0000)
  24 Ni     2.489016    5.748136   12.064546    ( 0.0000,  0.0000,  0.0000)
  25 Ni     4.978032    5.748136   12.064546    ( 0.0000,  0.0000,  0.0000)
  26 Ni     7.467048    5.748136   12.064546    ( 0.0000,  0.0000,  0.0000)
  27 Ni     0.000000    0.000000   14.096819    ( 0.0000,  0.0000,  0.0000)
  28 Ni     2.489016    0.000000   14.096819    ( 0.0000,  0.0000,  0.0000)
  29 Ni     4.978032    0.000000   14.096819    ( 0.0000,  0.0000,  0.0000)
  30 Ni     1.244508    2.155551   14.096819    ( 0.0000,  0.0000,  0.0000)
  31 Ni     3.733524    2.155551   14.096819    ( 0.0000,  0.0000,  0.0000)
  32 Ni     6.222540    2.155551   14.096819    ( 0.0000,  0.0000,  0.0000)
  33 Ni     2.489016    4.311102   14.096819    ( 0.0000,  0.0000,  0.0000)
  34 Ni     4.978032    4.311102   14.096819    ( 0.0000,  0.0000,  0.0000)
  35 Ni     7.467048    4.311102   14.096819    ( 0.0000,  0.0000,  0.0000)
  36 Mo     0.000000    0.000000   16.296819    ( 0.0000,  0.0000,  0.0000)
  37 B      1.525000    1.525000   17.821819    ( 0.0000,  0.0000,  0.0000)
  38 Mo     0.000000    3.050000   16.296819    ( 0.0000,  0.0000,  0.0000)
  39 B      1.525000    4.575000   17.821819    ( 0.0000,  0.0000,  0.0000)
  40 Mo     3.050000    0.000000   16.296819    ( 0.0000,  0.0000,  0.0000)
  41 B      4.575000    1.525000   17.821819    ( 0.0000,  0.0000,  0.0000)
  42 Mo     3.050000    3.050000   16.296819    ( 0.0000,  0.0000,  0.0000)
  43 B      4.575000    4.575000   17.821819    ( 0.0000,  0.0000,  0.0000)
  44 Ir     2.525169    1.420450   19.621819    ( 0.0000,  0.0000,  0.0000)
  45 Ir     2.525169    3.820450   19.621819    ( 0.0000,  0.0000,  0.0000)
  46 Ir     4.925169    1.420450   19.621819    ( 0.0000,  0.0000,  0.0000)
  47 Ir     4.925169    3.820450   19.621819    ( 0.0000,  0.0000,  0.0000)

Unit cell:
           periodic     x           y           z      points  spacing
  1. axis:    yes    7.467048    0.000000    0.000000    32     0.2021
  2. axis:    yes    3.733524    6.466653    0.000000    32     0.2021
  3. axis:    yes    0.000000    0.000000   25.821819   128     0.2017

  Lengths:   7.467048   7.467048  25.821819
  Angles:   90.000000  90.000000  60.000000

Effective grid spacing dv^(1/3) = 0.2119

     iter     time        total  log10-change:
                         energy   eigst   dens
iter:   1 15:29:23 -1224.576957        c
iter:   2 15:31:39 -4348.533229        c -0.91
iter:   3 15:34:06  -716.292726        c -0.41
iter:   4 15:36:54  -414.057899        c -1.09
iter:   5 15:39:11  -383.554832        c -1.42
iter:   6 15:41:17  -434.744389        c -1.55
iter:   7 15:43:40  -389.124051        c -1.39
iter:   8 15:45:35  -422.820125        c -1.57
iter:   9 15:47:50  -388.701675        c -1.36
iter:  10 15:50:06  -381.305071        c -1.67
iter:  11 15:52:04  -381.646424        c -1.68
iter:  12 15:54:09  -387.279081        c -1.62
iter:  13 15:56:37  -409.819670        c -1.69
iter:  14 15:59:09  -397.978552        c -1.55
iter:  15 16:01:38  -379.806519        c -1.61
iter:  16 16:03:43  -377.336242        c -1.77
iter:  17 16:06:07  -382.603620        c -1.86
iter:  18 16:08:27  -369.657438        c -1.63
iter:  19 16:10:44  -367.870940        c -1.98
iter:  20 16:12:46  -367.582074        c -2.09
iter:  21 16:14:48  -375.491874        c -2.16
iter:  22 16:17:44  -369.893957        c -1.78
iter:  23 16:20:13  -368.263202        c -2.05
iter:  24 16:22:37  -373.741265        c -2.26
iter:  25 16:24:50  -370.090368        c -2.00
iter:  26 16:26:55  -367.612473        c -2.15
iter:  27 16:29:39  -367.593444        c -2.45
iter:  28 16:31:54  -367.402317        c -2.51
iter:  29 16:34:26  -367.726671        c -2.57
iter:  30 16:36:44  -367.190494        c -2.36
iter:  31 16:38:36  -367.798840        c -2.73
iter:  32 16:41:26  -367.151605        c -2.38
iter:  33 16:44:23  -367.103961        c -2.84
iter:  34 16:46:16  -367.109824        c -2.91
iter:  35 16:48:28  -367.224379        c -2.88
iter:  36 16:50:36  -367.166997        c -2.76
iter:  37 16:52:39  -367.111213        c -2.84
iter:  38 16:54:58  -367.066978        c -3.01
iter:  39 16:57:23  -367.052298        c -3.00
iter:  40 16:59:37  -367.083683        c -3.39
iter:  41 17:02:13  -367.056297        c -2.92
iter:  42 17:04:23  -367.069776        c -3.21
iter:  43 17:06:46  -367.053035        c -3.29
iter:  44 17:09:43  -367.051835        c -3.47
iter:  45 17:12:07  -367.053010c       c -3.67
iter:  46 17:14:16  -367.055410c       c -3.57
iter:  47 17:16:22  -367.055038c       c -3.94
iter:  48 17:18:42  -367.053629c       c -3.89
iter:  49 17:20:54  -367.055403c       c -3.94
iter:  50 17:23:05  -367.054389c       c -4.08c

Converged after 50 iterations.

Dipole moment: (-30.985499, -11.743815, 0.259416) |e|*Ang

Energy contributions relative to reference atoms: (reference = -3866400.112448)

Kinetic:       +110.960044
Potential:      -72.787851
External:        +0.000000
XC:            -402.313170
Entropy (-ST):   -3.596854
Local:           -1.114985
SIC:             +0.000000
--------------------------
Free energy:   -368.852816
Extrapolated:  -367.054389

Showing only first 2 kpts
 Kpt  Band  Eigenvalues  Occupancy
  0   350      1.08961    1.09273
  0   351      1.12792    0.90175
  0   352      1.13735    0.85529
  0   353      1.14558    0.81529

  1   350      1.02661    1.38676
  1   351      1.03045    1.37033
  1   352      1.03834    1.33580
  1   353      1.05146    1.27635


Fermi level: 1.10821

No gap
No difference between direct/indirect transitions
Timing:                              incl.     excl.
-----------------------------------------------------------
Basic WFS set positions:             0.000     0.000   0.0% |
Basis functions set positions:       0.173     0.173   0.0% |
LCAO WFS Initialize:                 0.388     0.095   0.0% |
 Hamiltonian:                        0.293     0.000   0.0% |
  Atomic:                            0.160     0.002   0.0% |
   XC Correction:                    0.158     0.158   0.0% |
  Calculate atomic Hamiltonians:     0.023     0.023   0.0% |
  Communicate:                       0.000     0.000   0.0% |
  Hartree integrate/restrict:        0.011     0.011   0.0% |
  Initialize Hamiltonian:            0.001     0.001   0.0% |
  Poisson:                           0.059     0.004   0.0% |
   Communicate from 1D:              0.006     0.006   0.0% |
   Communicate from 2D:              0.008     0.008   0.0% |
   Communicate to 1D:                0.006     0.006   0.0% |
   Communicate to 2D:                0.008     0.008   0.0% |
   FFT 1D:                           0.007     0.007   0.0% |
   FFT 2D:                           0.020     0.020   0.0% |
  XC 3D grid:                        0.036     0.036   0.0% |
  vbar:                              0.004     0.004   0.0% |
P tci:                               4.946     4.946   0.1% |
SCF-cycle:                        6893.492     0.202   0.0% |
 Density:                         3289.639     0.001   0.0% |
  Atomic density matrices:           0.939     0.939   0.0% |
  Mix:                               6.572     6.572   0.1% |
  Multipole moments:                 0.014     0.014   0.0% |
  Normalize:                         0.005     0.005   0.0% |
  Pseudo density:                 3282.109     0.022   0.0% |
   Calculate density matrix:        10.603    10.603   0.2% |
   Construct density:             3271.483  3271.483  47.4% |------------------|
   Symmetrize density:               0.001     0.001   0.0% |
 Hamiltonian:                       15.759     0.002   0.0% |
  Atomic:                            7.849     0.088   0.0% |
   XC Correction:                    7.761     7.761   0.1% |
  Calculate atomic Hamiltonians:     1.185     1.185   0.0% |
  Communicate:                       0.000     0.000   0.0% |
  Hartree integrate/restrict:        0.504     0.504   0.0% |
  Poisson:                           2.781     0.207   0.0% |
   Communicate from 1D:              0.280     0.280   0.0% |
   Communicate from 2D:              0.322     0.322   0.0% |
   Communicate to 1D:                0.294     0.294   0.0% |
   Communicate to 2D:                0.342     0.342   0.0% |
   FFT 1D:                           0.294     0.294   0.0% |
   FFT 2D:                           1.042     1.042   0.0% |
  XC 3D grid:                        2.884     2.884   0.0% |
  vbar:                              0.553     0.553   0.0% |
 LCAO eigensolver:                3587.892     1.273   0.0% |
  Calculate projections:            83.735    83.735   1.2% |
  DenseAtomicCorrection:           236.224   236.224   3.4% ||
  Distribute overlap matrix:         2.866     2.866   0.0% |
  Orbital Layouts:                2628.514  2628.514  38.1% |--------------|
  Potential matrix:                521.843   521.843   7.6% |--|
  Sum over cells:                  113.436   113.436   1.6% ||
ST tci:                              2.103     2.103   0.0% |
Set symmetry:                        0.000     0.000   0.0% |
TCI: Evaluate splines:               0.606     0.606   0.0% |
mktci:                               0.028     0.028   0.0% |
Other:                               6.101     6.101   0.1% |
-----------------------------------------------------------
Total:                                      6907.838 100.0%

Memory usage: 4.71 GiB
Date: Fri Mar  6 17:23:05 2026
