
  ___ ___ ___ _ _ _  
 |   |   |_  | | | | 
 | | | | | . | | | | 
 |__ |  _|___|_____|  25.7.0
 |___|_|             

User:   mikei@Z790-AORUS-ELITE-AX
Date:   Sat Feb 21 14:17:56 2026
Arch:   x86_64
Pid:    89048
CWD:    /home/mikei/Dokumenty/code/cemea/ocx
Python: 3.10.16
gpaw:   /home/mikei/.pyenv/versions/cemea-env/lib/python3.10/site-packages/gpaw
_gpaw:  /home/mikei/.pyenv/versions/cemea-env/lib/python3.10/site-packages/
        _gpaw.cpython-310-x86_64-linux-gnu.so
ase:    /home/mikei/.pyenv/versions/cemea-env/lib/python3.10/site-packages/ase (version 3.27.0)
numpy:  /home/mikei/.pyenv/versions/cemea-env/lib/python3.10/site-packages/numpy (version 2.2.6)
scipy:  /home/mikei/.pyenv/versions/cemea-env/lib/python3.10/site-packages/scipy (version 1.15.3)
libxc:  2.x.y
units:  Angstrom and eV
cores: 1
OpenMP: False
OMP_NUM_THREADS: 1

Input parameters:
  basis: dzp
  convergence: {density: 0.0001,
                eigenstates: 1e-05,
                energy: 1e-05}
  kpts: [4 4 1]
  mode: lcao

System changes: positions, numbers, cell, pbc, initial_charges, initial_magmoms 

Initialize ...

species:
  B:
    name: Boron
    id: 02e2e0e88ef95f403158802f6b0f4231
    Z: 5.0
    valence: 3
    core: 2
    charge: 0.0
    file: /home/mikei/.pyenv/versions/cemea-env/lib/python3.10/site-packages/gpaw_data/setups/B.LDA.gz
    compensation charges: {type: gauss,
                           rc: 0.20,
                           lmax: 2}
    cutoffs: {filter: 1.14,
              core: 1.42}
    projectors:
      #              energy  rcut
      - 2s(2.00)    -9.383   0.635
      - 2p(1.00)    -3.714   0.635
      -  s          17.828   0.635
      -  p          23.498   0.635
      -  d           0.000   0.635
  
    # LCAO basis set for B:
    #   Name: dzp
    #   File: /home/mikei/.pyenv/versions/cemea-env/lib/python3.10/site-packages/gpaw_data/setups/B.dzp.basis.gz
    #   Number of radial functions: 5
    #   Number of spherical harmonics: 13
    #     l=0, rc=6.6719 Bohr: 2s-sz confined orbital
    #     l=1, rc=8.2188 Bohr: 2p-sz confined orbital
    #     l=0, rc=3.7500 Bohr: 2s-dz split-valence wave
    #     l=1, rc=4.6094 Bohr: 2p-dz split-valence wave
    #     l=2, rc=8.2188 Bohr: d-type Gaussian polarization
    #   Number of RI-basis functions 0

  Mo:
    name: Molybdenum
    id: ac24daaf086600a00ce6d19a74574df1
    Z: 42.0
    valence: 14
    core: 28
    charge: 0.0
    file: /home/mikei/.pyenv/versions/cemea-env/lib/python3.10/site-packages/gpaw_data/setups/Mo.LDA.gz
    compensation charges: {type: gauss,
                           rc: 0.38,
                           lmax: 2}
    cutoffs: {filter: 2.16,
              core: 1.42}
    projectors:
      #              energy  rcut
      - 4s(2.00)   -64.384   1.238
      - 5s(1.00)    -4.319   1.238
      - 4p(6.00)   -38.595   1.296
      - 5p(0.00)    -1.161   1.296
      - 4d(5.00)    -3.933   1.296
      -  d          23.278   1.296
  
    # LCAO basis set for Mo:
    #   Name: dzp
    #   File: /home/mikei/.pyenv/versions/cemea-env/lib/python3.10/site-packages/gpaw_data/setups/Mo.dzp.basis.gz
    #   Number of radial functions: 11
    #   Number of spherical harmonics: 29
    #     l=0, rc=3.5469 Bohr: 4s-sz confined orbital
    #     l=0, rc=10.0469 Bohr: 5s-sz confined orbital
    #     l=1, rc=4.0781 Bohr: 4p-sz confined orbital
    #     l=1, rc=14.0938 Bohr: 5p-sz confined orbital
    #     l=2, rc=7.2031 Bohr: 4d-sz confined orbital
    #     l=0, rc=2.1250 Bohr: 4s-dz split-valence wave
    #     l=0, rc=6.1250 Bohr: 5s-dz split-valence wave
    #     l=1, rc=2.5469 Bohr: 4p-dz split-valence wave
    #     l=1, rc=8.7656 Bohr: 5p-dz split-valence wave
    #     l=2, rc=4.2344 Bohr: 4d-dz split-valence wave
    #     l=1, rc=10.0469 Bohr: p-type Gaussian polarization
    #   Number of RI-basis functions 0

Reference energy: -2990413.380536  # eV

Spin-paired calculation

Convergence criteria:
 Maximum [total energy] change in last 3 cyles: 1e-05 eV / valence electron
 Maximum integral of absolute [dens]ity change: 0.0001 electrons / valence electron
 Maximum integral of absolute [eigenst]ate change: 1e-05 eV^2 / valence electron
 Maximum number of scf [iter]ations: 333
 (Square brackets indicate name in SCF output, whereas a 'c' in
 the SCF output indicates the quantity has converged.)

Symmetries present (total): 2

  ( 1  0  0)  ( 1  0  0)
  ( 0  1  0)  ( 0 -1  0)
  ( 0  0  1)  ( 0  0  1)

16 k-points: 4 x 4 x 1 Monkhorst-Pack grid
4 k-points in the irreducible part of the Brillouin zone
       k-points in crystal coordinates                weights
   0:     0.12500000    0.12500000    0.00000000          4/16
   1:     0.12500000    0.37500000    0.00000000          4/16
   2:     0.37500000    0.12500000    0.00000000          4/16
   3:     0.37500000    0.37500000    0.00000000          4/16

Wave functions: LCAO
  Diagonalizer: Serial LAPACK
  Atomic Correction: dense with blas
  Data-type: complex
 

Occupation numbers: Fermi-Dirac:
  width: 0.1000  # eV
 

Eigensolver
   LCAO using direct dense diagonalizer 

Densities:
  Coarse grid: 224*44*88 grid
  Fine grid: 448*88*176 grid
  Total Charge: 0.000000 

Density mixing:
  Method: separate
  Backend: pulay
  Linear mixing parameter: 0.05
  old densities: 5
  Damping of long wavelength oscillations: 50 

Hamiltonian:
  XC and Coulomb potentials evaluated on a 448*88*176 grid
  Using the LDA Exchange-Correlation functional
  Interpolation: tri-quintic (5. degree polynomial)
  Poisson solver: FastPoissonSolver using
    Stencil: 6*3+1=19 point O(h^6) finite-difference Laplacian
    FFT axes: [np.int64(0), np.int64(1), np.int64(2)]
    FST axes: []
 

Memory estimate:
  Process memory now: 4595.48 MiB
  Calculator: 1052.89 MiB
    Density: 386.11 MiB
      Arrays: 172.05 MiB
      Localized functions: 147.89 MiB
      Mixer: 66.17 MiB
    Hamiltonian: 122.20 MiB
      Arrays: 112.49 MiB
      XC: 0.00 MiB
      Poisson: 0.00 MiB
      vbar: 9.70 MiB
    Wavefunctions: 544.59 MiB
      C [qnM]: 20.40 MiB
      S, T [2 x qmm]: 167.96 MiB
      P [aqMi]: 3.92 MiB
      BasisFunctions: 352.30 MiB
      Eigensolver: 0.00 MiB

Total number of cores used: 1

Number of atoms: 57
Number of atomic orbitals: 1173
Number of bands in calculation: 285
Number of valence electrons: 468
Bands to converge: occupied

... initialized

Initializing position-dependent things.

Density initialized from atomic densities
       .-------------------------------------------------------------------------------------------------------------.  
      /|                                                                                                             |  
     / |                                                                                                             |  
    /  |                                                                                                             |  
   /   |                                                                                                             |  
  /    |                                                                                                             |  
 *     |                                                                                                             |  
 |     |                                                                                                             |  
 |     |                                                                                                             |  
 |     |                                                                                                             |  
 |     |                                                                                                             |  
 |     |                     B       B      B       B      B       B      B       B      B      B                    |  
 |     |                                                                                                             |  
 |     |                   B       B      B       B      B       B      B       B      B      B                      |  
 |     |                        Mo     Mo      Mo     Mo      Mo     Mo      Mo     Mo      Mo                       |  
 |     |                 B       B      B       B      B       B      B       B      B      B                        |  
 |     |                      Mo     Mo      Mo     Mo      Mo     Mo      Mo     Mo      Mo                         |  
 |     |                                                                                                             |  
 |     |                    Mo     Mo      Mo     Mo      Mo     Mo      Mo     Mo      Mo                           |  
 |     |                                                                                                             |  
 |     |                                                                                                             |  
 |     |                                                                                                             |  
 |     .-------------------------------------------------------------------------------------------------------------.  
 |    /                                                                                                             /   
 |   /                                                                                                             /    
 |  /                                                                                                             /     
 | /                                                                                                             /      
 |/                                                                                                             /       
 *-------------------------------------------------------------------------------------------------------------*        

Atomic positions and initial magnetic moments

Positions:
   0 B      9.525000    1.525000    9.525000    ( 0.0000,  0.0000,  0.0000)
   1 B      9.525000    4.575000    9.525000    ( 0.0000,  0.0000,  0.0000)
   2 B      9.525000    7.625000    9.525000    ( 0.0000,  0.0000,  0.0000)
   3 Mo    11.050000    0.000000    8.000000    ( 0.0000,  0.0000,  0.0000)
   4 B     12.575000    1.525000    9.525000    ( 0.0000,  0.0000,  0.0000)
   5 Mo    11.050000    3.050000    8.000000    ( 0.0000,  0.0000,  0.0000)
   6 B     12.575000    4.575000    9.525000    ( 0.0000,  0.0000,  0.0000)
   7 Mo    11.050000    6.100000    8.000000    ( 0.0000,  0.0000,  0.0000)
   8 B     12.575000    7.625000    9.525000    ( 0.0000,  0.0000,  0.0000)
   9 Mo    14.100000    0.000000    8.000000    ( 0.0000,  0.0000,  0.0000)
  10 B     15.625000    1.525000    9.525000    ( 0.0000,  0.0000,  0.0000)
  11 Mo    14.100000    3.050000    8.000000    ( 0.0000,  0.0000,  0.0000)
  12 B     15.625000    4.575000    9.525000    ( 0.0000,  0.0000,  0.0000)
  13 Mo    14.100000    6.100000    8.000000    ( 0.0000,  0.0000,  0.0000)
  14 B     15.625000    7.625000    9.525000    ( 0.0000,  0.0000,  0.0000)
  15 Mo    17.150000    0.000000    8.000000    ( 0.0000,  0.0000,  0.0000)
  16 B     18.675000    1.525000    9.525000    ( 0.0000,  0.0000,  0.0000)
  17 Mo    17.150000    3.050000    8.000000    ( 0.0000,  0.0000,  0.0000)
  18 B     18.675000    4.575000    9.525000    ( 0.0000,  0.0000,  0.0000)
  19 Mo    17.150000    6.100000    8.000000    ( 0.0000,  0.0000,  0.0000)
  20 B     18.675000    7.625000    9.525000    ( 0.0000,  0.0000,  0.0000)
  21 Mo    20.200000    0.000000    8.000000    ( 0.0000,  0.0000,  0.0000)
  22 B     21.725000    1.525000    9.525000    ( 0.0000,  0.0000,  0.0000)
  23 Mo    20.200000    3.050000    8.000000    ( 0.0000,  0.0000,  0.0000)
  24 B     21.725000    4.575000    9.525000    ( 0.0000,  0.0000,  0.0000)
  25 Mo    20.200000    6.100000    8.000000    ( 0.0000,  0.0000,  0.0000)
  26 B     21.725000    7.625000    9.525000    ( 0.0000,  0.0000,  0.0000)
  27 Mo    23.250000    0.000000    8.000000    ( 0.0000,  0.0000,  0.0000)
  28 B     24.775000    1.525000    9.525000    ( 0.0000,  0.0000,  0.0000)
  29 Mo    23.250000    3.050000    8.000000    ( 0.0000,  0.0000,  0.0000)
  30 B     24.775000    4.575000    9.525000    ( 0.0000,  0.0000,  0.0000)
  31 Mo    23.250000    6.100000    8.000000    ( 0.0000,  0.0000,  0.0000)
  32 B     24.775000    7.625000    9.525000    ( 0.0000,  0.0000,  0.0000)
  33 Mo    26.300000    0.000000    8.000000    ( 0.0000,  0.0000,  0.0000)
  34 B     27.825000    1.525000    9.525000    ( 0.0000,  0.0000,  0.0000)
  35 Mo    26.300000    3.050000    8.000000    ( 0.0000,  0.0000,  0.0000)
  36 B     27.825000    4.575000    9.525000    ( 0.0000,  0.0000,  0.0000)
  37 Mo    26.300000    6.100000    8.000000    ( 0.0000,  0.0000,  0.0000)
  38 B     27.825000    7.625000    9.525000    ( 0.0000,  0.0000,  0.0000)
  39 Mo    29.350000    0.000000    8.000000    ( 0.0000,  0.0000,  0.0000)
  40 B     30.875000    1.525000    9.525000    ( 0.0000,  0.0000,  0.0000)
  41 Mo    29.350000    3.050000    8.000000    ( 0.0000,  0.0000,  0.0000)
  42 B     30.875000    4.575000    9.525000    ( 0.0000,  0.0000,  0.0000)
  43 Mo    29.350000    6.100000    8.000000    ( 0.0000,  0.0000,  0.0000)
  44 B     30.875000    7.625000    9.525000    ( 0.0000,  0.0000,  0.0000)
  45 Mo    32.400000    0.000000    8.000000    ( 0.0000,  0.0000,  0.0000)
  46 B     33.925000    1.525000    9.525000    ( 0.0000,  0.0000,  0.0000)
  47 Mo    32.400000    3.050000    8.000000    ( 0.0000,  0.0000,  0.0000)
  48 B     33.925000    4.575000    9.525000    ( 0.0000,  0.0000,  0.0000)
  49 Mo    32.400000    6.100000    8.000000    ( 0.0000,  0.0000,  0.0000)
  50 B     33.925000    7.625000    9.525000    ( 0.0000,  0.0000,  0.0000)
  51 Mo    35.450000    0.000000    8.000000    ( 0.0000,  0.0000,  0.0000)
  52 B     36.975000    1.525000    9.525000    ( 0.0000,  0.0000,  0.0000)
  53 Mo    35.450000    3.050000    8.000000    ( 0.0000,  0.0000,  0.0000)
  54 B     36.975000    4.575000    9.525000    ( 0.0000,  0.0000,  0.0000)
  55 Mo    35.450000    6.100000    8.000000    ( 0.0000,  0.0000,  0.0000)
  56 B     36.975000    7.625000    9.525000    ( 0.0000,  0.0000,  0.0000)

Unit cell:
           periodic     x           y           z      points  spacing
  1. axis:    yes   44.975000    0.000000    0.000000   224     0.2008
  2. axis:    yes    0.000000    9.150000    0.000000    44     0.2080
  3. axis:    yes    0.000000    0.000000   17.525000    88     0.1991

  Lengths:  44.975000   9.150000  17.525000
  Angles:   90.000000  90.000000  90.000000

Effective grid spacing dv^(1/3) = 0.2026

     iter     time        total  log10-change:
                         energy   eigst   dens
iter:   1 14:18:12  -392.283924        c
iter:   2 14:18:39  -418.667068        c -0.92
iter:   3 14:19:04  -396.539004        c -0.84
iter:   4 14:19:25  -366.931515        c -0.90
iter:   5 14:19:46  -364.086104        c -1.07
iter:   6 14:20:11  -361.883991        c -1.09
iter:   7 14:20:32  -452.216250        c -1.12
iter:   8 14:20:55  -349.526292        c -0.75
iter:   9 14:21:24  -351.827257        c -1.42
iter:  10 14:21:48  -348.671203        c -1.33
iter:  11 14:22:12  -348.383127        c -1.51
iter:  12 14:22:36  -348.032612        c -1.62
iter:  13 14:23:01  -356.875125        c -1.69
iter:  14 14:23:23  -347.912776        c -1.19
iter:  15 14:23:50  -347.686058        c -1.73
iter:  16 14:24:11  -348.296478        c -1.79
iter:  17 14:24:36  -347.607809        c -1.64
iter:  18 14:25:00  -347.443308        c -1.80
iter:  19 14:25:21  -352.108430        c -1.87
iter:  20 14:25:42  -347.546393        c -1.33
iter:  21 14:26:03  -347.279289        c -1.82
iter:  22 14:26:23  -347.389912        c -1.98
iter:  23 14:26:46  -347.314682        c -1.88
iter:  24 14:27:10  -347.244376        c -1.95
iter:  25 14:27:38  -347.438590        c -1.99
iter:  26 14:28:01  -351.707137        c -1.86
iter:  27 14:28:30  -347.124428        c -1.34
iter:  28 14:28:51  -347.373348        c -2.17
iter:  29 14:29:14  -347.072643        c -1.94
iter:  30 14:29:35  -347.072031        c -2.22
iter:  31 14:29:58  -347.052810        c -2.30
iter:  32 14:30:23  -347.407451        c -2.38
iter:  33 14:30:46  -347.093685        c -1.88
iter:  34 14:31:07  -347.140539        c -2.22
iter:  35 14:31:28  -347.125909        c -2.10
iter:  36 14:31:49  -347.099952        c -2.23
iter:  37 14:32:10  -347.043510        c -2.22
iter:  38 14:32:34  -347.063630        c -2.50
iter:  39 14:32:55  -347.062843        c -2.36
iter:  40 14:33:16  -347.075272        c -2.39
iter:  41 14:33:42  -347.051295        c -2.38
iter:  42 14:34:03  -347.044990        c -2.39
iter:  43 14:34:24  -347.074615        c -2.64
iter:  44 14:34:48  -347.083280        c -2.33
iter:  45 14:35:12  -347.042353        c -2.29
iter:  46 14:35:34  -347.028237        c -2.54
iter:  47 14:35:55  -347.032597        c -2.70
iter:  48 14:36:16  -347.029578c       c -2.87
iter:  49 14:36:37  -347.036226        c -2.93
iter:  50 14:37:01  -347.040159        c -2.77
iter:  51 14:37:22  -347.042143        c -2.63
iter:  52 14:37:43  -347.049245        c -2.63
iter:  53 14:38:04  -347.025223        c -2.61
iter:  54 14:38:25  -347.030407        c -2.80
iter:  55 14:38:46  -347.030014        c -3.07
iter:  56 14:39:07  -347.031739c       c -3.09
iter:  57 14:39:31  -347.034123c       c -2.98
iter:  58 14:39:54  -347.029971c       c -2.78
iter:  59 14:40:15  -347.034489c       c -2.81
iter:  60 14:40:40  -347.027068        c -3.06
iter:  61 14:41:02  -347.028801        c -2.98
iter:  62 14:41:25  -347.028642c       c -3.21
iter:  63 14:41:48  -347.028314c       c -3.06
iter:  64 14:42:09  -347.028968c       c -3.29
iter:  65 14:42:33  -347.027419c       c -3.41
iter:  66 14:42:56  -347.030218c       c -3.46
iter:  67 14:43:17  -347.028460c       c -3.37
iter:  68 14:43:38  -347.031252c       c -3.44
iter:  69 14:43:59  -347.029025c       c -3.01
iter:  70 14:44:27  -347.026905c       c -3.13
iter:  71 14:44:53  -347.028535c       c -3.30
iter:  72 14:45:15  -347.028203c       c -3.66
iter:  73 14:45:37  -347.028546c       c -3.68
iter:  74 14:45:58  -347.028638c       c -3.69
iter:  75 14:46:19  -347.029486c       c -3.30
iter:  76 14:46:42  -347.030609c       c -3.21
iter:  77 14:47:03  -347.027267c       c -3.30
iter:  78 14:47:24  -347.028390c       c -3.63
iter:  79 14:47:49  -347.028026c       c -3.75
iter:  80 14:48:10  -347.028187c       c -3.88
iter:  81 14:48:34  -347.028053c       c -3.80
iter:  82 14:48:56  -347.027374c       c -3.55
iter:  83 14:49:18  -347.029496c       c -3.53
iter:  84 14:49:41  -347.027998c       c -3.59
iter:  85 14:50:03  -347.028386c       c -3.81
iter:  86 14:50:23  -347.028212c       c -3.93
iter:  87 14:50:44  -347.028315c       c -3.92
iter:  88 14:51:05  -347.028563c       c -3.95
iter:  89 14:51:32  -347.027688c       c -3.92
iter:  90 14:51:56  -347.028276c       c -3.87
iter:  91 14:52:20  -347.028016c       c -4.15c

Converged after 91 iterations.

Dipole moment: (-0.000767, -28.263197, -0.975231) |e|*Ang

Energy contributions relative to reference atoms: (reference = -2990413.380536)

Kinetic:       -718.542816
Potential:     +480.701455
External:        +0.000000
XC:            -110.541750
Entropy (-ST):   -3.890845
Local:           +3.300517
SIC:             +0.000000
--------------------------
Free energy:   -348.973439
Extrapolated:  -347.028016

Showing only first 2 kpts
 Kpt  Band  Eigenvalues  Occupancy
  0   232     -3.37788    0.74252
  0   233     -3.36676    0.69139
  0   234     -3.36669    0.69106
  0   235     -3.33819    0.56841

  1   232     -3.50466    1.35440
  1   233     -3.49964    1.33229
  1   234     -3.49534    1.31300
  1   235     -3.48139    1.24881


Fermi level: -3.43056

No gap
No difference between direct/indirect transitions
Timing:                              incl.     excl.
-----------------------------------------------------------
Basic WFS set positions:             0.001     0.001   0.0% |
Basis functions set positions:       0.180     0.180   0.0% |
LCAO WFS Initialize:                 1.010     0.108   0.0% |
 Hamiltonian:                        0.902     0.000   0.0% |
  Atomic:                            0.162     0.002   0.0% |
   XC Correction:                    0.160     0.160   0.0% |
  Calculate atomic Hamiltonians:     0.019     0.019   0.0% |
  Communicate:                       0.000     0.000   0.0% |
  Hartree integrate/restrict:        0.050     0.050   0.0% |
  Initialize Hamiltonian:            0.000     0.000   0.0% |
  Poisson:                           0.482     0.035   0.0% |
   Communicate from 1D:              0.054     0.054   0.0% |
   Communicate from 2D:              0.054     0.054   0.0% |
   Communicate to 1D:                0.036     0.036   0.0% |
   Communicate to 2D:                0.054     0.054   0.0% |
   FFT 1D:                           0.061     0.061   0.0% |
   FFT 2D:                           0.188     0.188   0.0% |
  XC 3D grid:                        0.183     0.183   0.0% |
  vbar:                              0.005     0.005   0.0% |
P tci:                               0.968     0.968   0.0% |
SCF-cycle:                        2056.513     0.087   0.0% |
 Density:                         1200.161     0.001   0.0% |
  Atomic density matrices:           0.647     0.647   0.0% |
  Mix:                              13.278    13.278   0.6% |
  Multipole moments:                 0.027     0.027   0.0% |
  Normalize:                         0.035     0.035   0.0% |
  Pseudo density:                 1186.172     0.101   0.0% |
   Calculate density matrix:         5.145     5.145   0.2% |
   Construct density:             1179.194  1179.194  57.1% |----------------------|
   Symmetrize density:               1.733     1.733   0.1% |
 Hamiltonian:                       82.016     0.005   0.0% |
  Atomic:                           14.657     0.166   0.0% |
   XC Correction:                   14.490    14.490   0.7% |
  Calculate atomic Hamiltonians:     1.699     1.699   0.1% |
  Communicate:                       0.000     0.000   0.0% |
  Hartree integrate/restrict:        4.664     4.664   0.2% |
  Poisson:                          43.856     2.716   0.1% |
   Communicate from 1D:              4.876     4.876   0.2% |
   Communicate from 2D:              4.893     4.893   0.2% |
   Communicate to 1D:                3.231     3.231   0.2% |
   Communicate to 2D:                4.856     4.856   0.2% |
   FFT 1D:                           5.473     5.473   0.3% |
   FFT 2D:                          17.811    17.811   0.9% |
  XC 3D grid:                       16.514    16.514   0.8% |
  vbar:                              0.621     0.621   0.0% |
 LCAO eigensolver:                 774.249     1.164   0.1% |
  Calculate projections:            40.883    40.883   2.0% ||
  DenseAtomicCorrection:           127.880   127.880   6.2% |-|
  Distribute overlap matrix:         2.197     2.197   0.1% |
  Orbital Layouts:                 255.707   255.707  12.4% |----|
  Potential matrix:                340.356   340.356  16.5% |------|
  Sum over cells:                    6.063     6.063   0.3% |
ST tci:                              0.386     0.386   0.0% |
Set symmetry:                        0.001     0.001   0.0% |
TCI: Evaluate splines:               0.124     0.124   0.0% |
mktci:                               0.007     0.007   0.0% |
Other:                               4.275     4.275   0.2% |
-----------------------------------------------------------
Total:                                      2063.466 100.0%

Memory usage: 4.49 GiB
Date: Sat Feb 21 14:52:20 2026
