
  ___ ___ ___ _ _ _  
 |   |   |_  | | | | 
 | | | | | . | | | | 
 |__ |  _|___|_____|  25.7.0
 |___|_|             

User:   mikei@Z790-AORUS-ELITE-AX
Date:   Sat Feb 21 14:52:20 2026
Arch:   x86_64
Pid:    89048
CWD:    /home/mikei/Dokumenty/code/cemea/ocx
Python: 3.10.16
gpaw:   /home/mikei/.pyenv/versions/cemea-env/lib/python3.10/site-packages/gpaw
_gpaw:  /home/mikei/.pyenv/versions/cemea-env/lib/python3.10/site-packages/
        _gpaw.cpython-310-x86_64-linux-gnu.so
ase:    /home/mikei/.pyenv/versions/cemea-env/lib/python3.10/site-packages/ase (version 3.27.0)
numpy:  /home/mikei/.pyenv/versions/cemea-env/lib/python3.10/site-packages/numpy (version 2.2.6)
scipy:  /home/mikei/.pyenv/versions/cemea-env/lib/python3.10/site-packages/scipy (version 1.15.3)
libxc:  2.x.y
units:  Angstrom and eV
cores: 1
OpenMP: False
OMP_NUM_THREADS: 1

Input parameters:
  basis: dzp
  convergence: {density: 0.0001,
                eigenstates: 1e-05,
                energy: 1e-05}
  kpts: [4 4 1]
  mode: lcao

System changes: positions, numbers, cell, pbc, initial_charges, initial_magmoms 

Initialize ...

species:
  B:
    name: Boron
    id: 02e2e0e88ef95f403158802f6b0f4231
    Z: 5.0
    valence: 3
    core: 2
    charge: 0.0
    file: /home/mikei/.pyenv/versions/cemea-env/lib/python3.10/site-packages/gpaw_data/setups/B.LDA.gz
    compensation charges: {type: gauss,
                           rc: 0.20,
                           lmax: 2}
    cutoffs: {filter: 1.14,
              core: 1.42}
    projectors:
      #              energy  rcut
      - 2s(2.00)    -9.383   0.635
      - 2p(1.00)    -3.714   0.635
      -  s          17.828   0.635
      -  p          23.498   0.635
      -  d           0.000   0.635
  
    # LCAO basis set for B:
    #   Name: dzp
    #   File: /home/mikei/.pyenv/versions/cemea-env/lib/python3.10/site-packages/gpaw_data/setups/B.dzp.basis.gz
    #   Number of radial functions: 5
    #   Number of spherical harmonics: 13
    #     l=0, rc=6.6719 Bohr: 2s-sz confined orbital
    #     l=1, rc=8.2188 Bohr: 2p-sz confined orbital
    #     l=0, rc=3.7500 Bohr: 2s-dz split-valence wave
    #     l=1, rc=4.6094 Bohr: 2p-dz split-valence wave
    #     l=2, rc=8.2188 Bohr: d-type Gaussian polarization
    #   Number of RI-basis functions 0

  Mo:
    name: Molybdenum
    id: ac24daaf086600a00ce6d19a74574df1
    Z: 42.0
    valence: 14
    core: 28
    charge: 0.0
    file: /home/mikei/.pyenv/versions/cemea-env/lib/python3.10/site-packages/gpaw_data/setups/Mo.LDA.gz
    compensation charges: {type: gauss,
                           rc: 0.38,
                           lmax: 2}
    cutoffs: {filter: 2.16,
              core: 1.42}
    projectors:
      #              energy  rcut
      - 4s(2.00)   -64.384   1.238
      - 5s(1.00)    -4.319   1.238
      - 4p(6.00)   -38.595   1.296
      - 5p(0.00)    -1.161   1.296
      - 4d(5.00)    -3.933   1.296
      -  d          23.278   1.296
  
    # LCAO basis set for Mo:
    #   Name: dzp
    #   File: /home/mikei/.pyenv/versions/cemea-env/lib/python3.10/site-packages/gpaw_data/setups/Mo.dzp.basis.gz
    #   Number of radial functions: 11
    #   Number of spherical harmonics: 29
    #     l=0, rc=3.5469 Bohr: 4s-sz confined orbital
    #     l=0, rc=10.0469 Bohr: 5s-sz confined orbital
    #     l=1, rc=4.0781 Bohr: 4p-sz confined orbital
    #     l=1, rc=14.0938 Bohr: 5p-sz confined orbital
    #     l=2, rc=7.2031 Bohr: 4d-sz confined orbital
    #     l=0, rc=2.1250 Bohr: 4s-dz split-valence wave
    #     l=0, rc=6.1250 Bohr: 5s-dz split-valence wave
    #     l=1, rc=2.5469 Bohr: 4p-dz split-valence wave
    #     l=1, rc=8.7656 Bohr: 5p-dz split-valence wave
    #     l=2, rc=4.2344 Bohr: 4d-dz split-valence wave
    #     l=1, rc=10.0469 Bohr: p-type Gaussian polarization
    #   Number of RI-basis functions 0

  H:
    name: Hydrogen
    id: 4766778ce56282eaa64abeb28b7c1de3
    Z: 1.0
    valence: 1
    core: 0
    charge: 0.0
    file: /home/mikei/.pyenv/versions/cemea-env/lib/python3.10/site-packages/gpaw_data/setups/H.LDA.gz
    compensation charges: {type: gauss,
                           rc: 0.15,
                           lmax: 2}
    cutoffs: {filter: 0.85,
              core: 0.53}
    projectors:
      #              energy  rcut
      - 1s(1.00)    -6.353   0.476
      -  s          20.858   0.476
      -  p           0.000   0.476
  
    # LCAO basis set for H:
    #   Name: dzp
    #   File: /home/mikei/.pyenv/versions/cemea-env/lib/python3.10/site-packages/gpaw_data/setups/H.dzp.basis.gz
    #   Number of radial functions: 3
    #   Number of spherical harmonics: 5
    #     l=0, rc=6.4219 Bohr: 1s-sz confined orbital
    #     l=0, rc=3.6094 Bohr: 1s-dz split-valence wave
    #     l=1, rc=6.4219 Bohr: p-type Gaussian polarization
    #   Number of RI-basis functions 0

Reference energy: -2990425.509494  # eV

Spin-paired calculation

Convergence criteria:
 Maximum [total energy] change in last 3 cyles: 1e-05 eV / valence electron
 Maximum integral of absolute [dens]ity change: 0.0001 electrons / valence electron
 Maximum integral of absolute [eigenst]ate change: 1e-05 eV^2 / valence electron
 Maximum number of scf [iter]ations: 333
 (Square brackets indicate name in SCF output, whereas a 'c' in
 the SCF output indicates the quantity has converged.)

Symmetries present (total): 1

  ( 1  0  0)
  ( 0  1  0)
  ( 0  0  1)

16 k-points: 4 x 4 x 1 Monkhorst-Pack grid
8 k-points in the irreducible part of the Brillouin zone
       k-points in crystal coordinates                weights
   0:     0.12500000   -0.37500000    0.00000000          2/16
   1:     0.12500000   -0.12500000    0.00000000          2/16
   2:     0.12500000    0.12500000    0.00000000          2/16
   3:     0.12500000    0.37500000    0.00000000          2/16
   4:     0.37500000   -0.37500000    0.00000000          2/16
   5:     0.37500000   -0.12500000    0.00000000          2/16
   6:     0.37500000    0.12500000    0.00000000          2/16
   7:     0.37500000    0.37500000    0.00000000          2/16

Wave functions: LCAO
  Diagonalizer: Serial LAPACK
  Atomic Correction: dense with blas
  Data-type: complex
 

Occupation numbers: Fermi-Dirac:
  width: 0.1000  # eV
 

Eigensolver
   LCAO using direct dense diagonalizer 

Densities:
  Coarse grid: 224*44*88 grid
  Fine grid: 448*88*176 grid
  Total Charge: 0.000000 

Density mixing:
  Method: separate
  Backend: pulay
  Linear mixing parameter: 0.05
  old densities: 5
  Damping of long wavelength oscillations: 50 

Hamiltonian:
  XC and Coulomb potentials evaluated on a 448*88*176 grid
  Using the LDA Exchange-Correlation functional
  Interpolation: tri-quintic (5. degree polynomial)
  Poisson solver: FastPoissonSolver using
    Stencil: 6*3+1=19 point O(h^6) finite-difference Laplacian
    FFT axes: [np.int64(0), np.int64(1), np.int64(2)]
    FST axes: []
 

Memory estimate:
  Process memory now: 4595.48 MiB
  Calculator: 1249.33 MiB
    Density: 386.35 MiB
      Arrays: 172.05 MiB
      Localized functions: 148.13 MiB
      Mixer: 66.17 MiB
    Hamiltonian: 122.22 MiB
      Arrays: 112.49 MiB
      XC: 0.00 MiB
      Poisson: 0.00 MiB
      vbar: 9.72 MiB
    Wavefunctions: 740.77 MiB
      C [qnM]: 41.13 MiB
      S, T [2 x qmm]: 338.79 MiB
      P [aqMi]: 7.92 MiB
      BasisFunctions: 352.93 MiB
      Eigensolver: 0.00 MiB

Total number of cores used: 1

Number of atoms: 58
Number of atomic orbitals: 1178
Number of bands in calculation: 286
Number of valence electrons: 469
Bands to converge: occupied

... initialized

Initializing position-dependent things.

Density initialized from atomic densities
       .-------------------------------------------------------------------------------------------------------------.  
      /|                                                                                                             |  
     / |                                                                                                             |  
    /  |                                                                                                             |  
   /   |                                                                                                             |  
  /    |                                                                                                             |  
 *     |                                                                                                             |  
 |     |                                                                                                             |  
 |     |                                                                                                             |  
 |     |                                                                                                             |  
 |     |                                                                                                             |  
 |     |                     B       B      B       B      B       B      B       B      B      B                    |  
 |     |                                                    H                                                        |  
 |     |                   B       B      B       B      B       B      B       B      B      B                      |  
 |     |                        Mo     Mo      Mo     Mo      Mo     Mo      Mo     Mo      Mo                       |  
 |     |                 B       B      B       B      B       B      B       B      B      B                        |  
 |     |                      Mo     Mo      Mo     Mo      Mo     Mo      Mo     Mo      Mo                         |  
 |     |                                                                                                             |  
 |     |                    Mo     Mo      Mo     Mo      Mo     Mo      Mo     Mo      Mo                           |  
 |     |                                                                                                             |  
 |     |                                                                                                             |  
 |     |                                                                                                             |  
 |     .-------------------------------------------------------------------------------------------------------------.  
 |    /                                                                                                             /   
 |   /                                                                                                             /    
 |  /                                                                                                             /     
 | /                                                                                                             /      
 |/                                                                                                             /       
 *-------------------------------------------------------------------------------------------------------------*        

Atomic positions and initial magnetic moments

Positions:
   0 B      9.525000    1.525000    9.525000    ( 0.0000,  0.0000,  0.0000)
   1 B      9.525000    4.575000    9.525000    ( 0.0000,  0.0000,  0.0000)
   2 B      9.525000    7.625000    9.525000    ( 0.0000,  0.0000,  0.0000)
   3 Mo    11.050000    0.000000    8.000000    ( 0.0000,  0.0000,  0.0000)
   4 B     12.575000    1.525000    9.525000    ( 0.0000,  0.0000,  0.0000)
   5 Mo    11.050000    3.050000    8.000000    ( 0.0000,  0.0000,  0.0000)
   6 B     12.575000    4.575000    9.525000    ( 0.0000,  0.0000,  0.0000)
   7 Mo    11.050000    6.100000    8.000000    ( 0.0000,  0.0000,  0.0000)
   8 B     12.575000    7.625000    9.525000    ( 0.0000,  0.0000,  0.0000)
   9 Mo    14.100000    0.000000    8.000000    ( 0.0000,  0.0000,  0.0000)
  10 B     15.625000    1.525000    9.525000    ( 0.0000,  0.0000,  0.0000)
  11 Mo    14.100000    3.050000    8.000000    ( 0.0000,  0.0000,  0.0000)
  12 B     15.625000    4.575000    9.525000    ( 0.0000,  0.0000,  0.0000)
  13 Mo    14.100000    6.100000    8.000000    ( 0.0000,  0.0000,  0.0000)
  14 B     15.625000    7.625000    9.525000    ( 0.0000,  0.0000,  0.0000)
  15 Mo    17.150000    0.000000    8.000000    ( 0.0000,  0.0000,  0.0000)
  16 B     18.675000    1.525000    9.525000    ( 0.0000,  0.0000,  0.0000)
  17 Mo    17.150000    3.050000    8.000000    ( 0.0000,  0.0000,  0.0000)
  18 B     18.675000    4.575000    9.525000    ( 0.0000,  0.0000,  0.0000)
  19 Mo    17.150000    6.100000    8.000000    ( 0.0000,  0.0000,  0.0000)
  20 B     18.675000    7.625000    9.525000    ( 0.0000,  0.0000,  0.0000)
  21 Mo    20.200000    0.000000    8.000000    ( 0.0000,  0.0000,  0.0000)
  22 B     21.725000    1.525000    9.525000    ( 0.0000,  0.0000,  0.0000)
  23 Mo    20.200000    3.050000    8.000000    ( 0.0000,  0.0000,  0.0000)
  24 B     21.725000    4.575000    9.525000    ( 0.0000,  0.0000,  0.0000)
  25 Mo    20.200000    6.100000    8.000000    ( 0.0000,  0.0000,  0.0000)
  26 B     21.725000    7.625000    9.525000    ( 0.0000,  0.0000,  0.0000)
  27 Mo    23.250000    0.000000    8.000000    ( 0.0000,  0.0000,  0.0000)
  28 B     24.775000    1.525000    9.525000    ( 0.0000,  0.0000,  0.0000)
  29 Mo    23.250000    3.050000    8.000000    ( 0.0000,  0.0000,  0.0000)
  30 B     24.775000    4.575000    9.525000    ( 0.0000,  0.0000,  0.0000)
  31 Mo    23.250000    6.100000    8.000000    ( 0.0000,  0.0000,  0.0000)
  32 B     24.775000    7.625000    9.525000    ( 0.0000,  0.0000,  0.0000)
  33 Mo    26.300000    0.000000    8.000000    ( 0.0000,  0.0000,  0.0000)
  34 B     27.825000    1.525000    9.525000    ( 0.0000,  0.0000,  0.0000)
  35 Mo    26.300000    3.050000    8.000000    ( 0.0000,  0.0000,  0.0000)
  36 B     27.825000    4.575000    9.525000    ( 0.0000,  0.0000,  0.0000)
  37 Mo    26.300000    6.100000    8.000000    ( 0.0000,  0.0000,  0.0000)
  38 B     27.825000    7.625000    9.525000    ( 0.0000,  0.0000,  0.0000)
  39 Mo    29.350000    0.000000    8.000000    ( 0.0000,  0.0000,  0.0000)
  40 B     30.875000    1.525000    9.525000    ( 0.0000,  0.0000,  0.0000)
  41 Mo    29.350000    3.050000    8.000000    ( 0.0000,  0.0000,  0.0000)
  42 B     30.875000    4.575000    9.525000    ( 0.0000,  0.0000,  0.0000)
  43 Mo    29.350000    6.100000    8.000000    ( 0.0000,  0.0000,  0.0000)
  44 B     30.875000    7.625000    9.525000    ( 0.0000,  0.0000,  0.0000)
  45 Mo    32.400000    0.000000    8.000000    ( 0.0000,  0.0000,  0.0000)
  46 B     33.925000    1.525000    9.525000    ( 0.0000,  0.0000,  0.0000)
  47 Mo    32.400000    3.050000    8.000000    ( 0.0000,  0.0000,  0.0000)
  48 B     33.925000    4.575000    9.525000    ( 0.0000,  0.0000,  0.0000)
  49 Mo    32.400000    6.100000    8.000000    ( 0.0000,  0.0000,  0.0000)
  50 B     33.925000    7.625000    9.525000    ( 0.0000,  0.0000,  0.0000)
  51 Mo    35.450000    0.000000    8.000000    ( 0.0000,  0.0000,  0.0000)
  52 B     36.975000    1.525000    9.525000    ( 0.0000,  0.0000,  0.0000)
  53 Mo    35.450000    3.050000    8.000000    ( 0.0000,  0.0000,  0.0000)
  54 B     36.975000    4.575000    9.525000    ( 0.0000,  0.0000,  0.0000)
  55 Mo    35.450000    6.100000    8.000000    ( 0.0000,  0.0000,  0.0000)
  56 B     36.975000    7.625000    9.525000    ( 0.0000,  0.0000,  0.0000)
  57 H     23.250000    3.852632   11.025000    ( 0.0000,  0.0000,  0.0000)

Unit cell:
           periodic     x           y           z      points  spacing
  1. axis:    yes   44.975000    0.000000    0.000000   224     0.2008
  2. axis:    yes    0.000000    9.150000    0.000000    44     0.2080
  3. axis:    yes    0.000000    0.000000   17.525000    88     0.1991

  Lengths:  44.975000   9.150000  17.525000
  Angles:   90.000000  90.000000  90.000000

Effective grid spacing dv^(1/3) = 0.2026

     iter     time        total  log10-change:
                         energy   eigst   dens
iter:   1 14:52:45  -394.062807        c
iter:   2 14:53:22  -415.568777        c -0.92
iter:   3 14:54:00  -400.017561        c -0.85
iter:   4 14:54:47  -368.717435        c -0.90
iter:   5 14:55:25  -365.818506        c -1.07
iter:   6 14:56:02  -363.425195        c -1.10
iter:   7 14:56:39  -464.305010        c -1.12
iter:   8 14:57:20  -351.065947        c -0.73
iter:   9 14:58:05  -351.069498        c -1.45
iter:  10 14:58:42  -351.332568        c -1.50
iter:  11 14:59:19  -350.411666        c -1.47
iter:  12 15:00:02  -350.079391        c -1.62
iter:  13 15:00:47  -353.611411        c -1.68
iter:  14 15:01:37  -350.397008        c -1.35
iter:  15 15:02:18  -349.823557        c -1.62
iter:  16 15:03:05  -350.145762        c -1.76
iter:  17 15:03:45  -349.534883        c -1.68
iter:  18 15:04:33  -349.389225        c -1.85
iter:  19 15:05:14  -349.779794        c -1.93
iter:  20 15:06:01  -349.652928        c -1.76
iter:  21 15:06:39  -349.406388        c -1.80
iter:  22 15:07:20  -349.493105        c -1.91
iter:  23 15:08:01  -349.360567        c -1.83
iter:  24 15:08:46  -349.230815        c -1.96
iter:  25 15:09:30  -349.377561        c -2.07
iter:  26 15:10:08  -349.211701        c -1.90
iter:  27 15:10:46  -349.178854        c -2.08
iter:  28 15:11:25  -349.303727        c -2.14
iter:  29 15:12:02  -349.203602        c -2.02
iter:  30 15:12:41  -349.167325        c -2.07
iter:  31 15:13:18  -349.246232        c -2.15
iter:  32 15:13:56  -349.275885        c -2.04
iter:  33 15:14:37  -349.126068        c -2.00
iter:  34 15:15:15  -349.132566        c -2.26
iter:  35 15:15:54  -349.183801        c -2.19
iter:  36 15:16:35  -349.146754        c -2.15
iter:  37 15:17:16  -349.176884        c -2.22
iter:  38 15:17:55  -349.640623        c -2.12
iter:  39 15:18:39  -349.114147        c -1.78
iter:  40 15:19:20  -349.148098        c -2.31
iter:  41 15:19:59  -349.083339        c -2.25
iter:  42 15:20:46  -349.084731        c -2.43
iter:  43 15:21:23  -349.085703c       c -2.48
iter:  44 15:22:00  -349.473187        c -2.49
iter:  45 15:22:37  -349.110923        c -1.86
iter:  46 15:23:14  -349.134893        c -2.34
iter:  47 15:24:00  -349.148376        c -2.18
iter:  48 15:24:43  -349.086498        c -2.28
iter:  49 15:25:30  -349.084019        c -2.53
iter:  50 15:26:09  -349.092845        c -2.56
iter:  51 15:26:49  -349.086283        c -2.47
iter:  52 15:27:26  -349.111275        c -2.55
iter:  53 15:28:12  -349.108722        c -2.44
iter:  54 15:28:54  -349.099692        c -2.29
iter:  55 15:29:31  -349.080706        c -2.46
iter:  56 15:30:13  -349.117953        c -2.62
iter:  57 15:30:50  -349.076233        c -2.33
iter:  58 15:31:27  -349.072738        c -2.75
iter:  59 15:32:05  -349.088135        c -2.79
iter:  60 15:32:49  -349.076509        c -2.65
iter:  61 15:33:32  -349.081609        c -2.66
iter:  62 15:34:10  -349.203029        c -2.63
iter:  63 15:34:48  -349.088409        c -2.11
iter:  64 15:35:26  -349.078314        c -2.50
iter:  65 15:36:05  -349.072660        c -2.82
iter:  66 15:36:49  -349.076027        c -2.90
iter:  67 15:37:29  -349.073921c       c -2.88
iter:  68 15:38:06  -349.088965        c -2.96
iter:  69 15:38:46  -349.105920        c -2.57
iter:  70 15:39:23  -349.072204        c -2.41
iter:  71 15:40:01  -349.079876        c -2.68
iter:  72 15:40:44  -349.071009        c -2.91
iter:  73 15:41:24  -349.071339        c -3.17
iter:  74 15:42:04  -349.071199c       c -3.25
iter:  75 15:42:48  -349.074465c       c -3.27
iter:  76 15:43:32  -349.075322c       c -2.86
iter:  77 15:44:09  -349.067174        c -3.13
iter:  78 15:44:47  -349.075319        c -3.03
iter:  79 15:45:24  -349.071236        c -3.00
iter:  80 15:46:01  -349.071117c       c -3.20
iter:  81 15:46:39  -349.071029c       c -3.46
iter:  82 15:47:16  -349.070657c       c -3.58
iter:  83 15:47:53  -349.072127c       c -3.56
iter:  84 15:48:34  -349.069521c       c -3.51
iter:  85 15:49:13  -349.071042c       c -3.36
iter:  86 15:49:50  -349.071636c       c -3.41
iter:  87 15:50:36  -349.070337c       c -3.03
iter:  88 15:51:14  -349.070926c       c -3.44
iter:  89 15:51:56  -349.070585c       c -3.88
iter:  90 15:52:33  -349.070869c       c -4.02c

Converged after 90 iterations.

Dipole moment: (0.000129, -28.251787, -1.054852) |e|*Ang

Energy contributions relative to reference atoms: (reference = -2990425.509494)

Kinetic:       -721.711335
Potential:     +482.794490
External:        +0.000000
XC:            -111.533856
Entropy (-ST):   -3.901578
Local:           +3.330620
SIC:             +0.000000
--------------------------
Free energy:   -351.021658
Extrapolated:  -349.070869

Showing only first 2 kpts
 Kpt  Band  Eigenvalues  Occupancy
  0   232     -3.54286    1.47682
  0   233     -3.50899    1.33596
  0   234     -3.50062    1.29830
  0   235     -3.48664    1.23337

  1   232     -3.39337    0.77531
  1   233     -3.38544    0.73800
  1   234     -3.37457    0.68815
  1   235     -3.36703    0.65452


Fermi level: -3.43909

No gap
No difference between direct/indirect transitions
Timing:                              incl.     excl.
-----------------------------------------------------------
Basic WFS set positions:             0.001     0.001   0.0% |
Basis functions set positions:       0.183     0.183   0.0% |
LCAO WFS Initialize:                 1.018     0.115   0.0% |
 Hamiltonian:                        0.903     0.000   0.0% |
  Atomic:                            0.163     0.002   0.0% |
   XC Correction:                    0.161     0.161   0.0% |
  Calculate atomic Hamiltonians:     0.019     0.019   0.0% |
  Communicate:                       0.000     0.000   0.0% |
  Hartree integrate/restrict:        0.050     0.050   0.0% |
  Initialize Hamiltonian:            0.000     0.000   0.0% |
  Poisson:                           0.478     0.035   0.0% |
   Communicate from 1D:              0.054     0.054   0.0% |
   Communicate from 2D:              0.054     0.054   0.0% |
   Communicate to 1D:                0.035     0.035   0.0% |
   Communicate to 2D:                0.054     0.054   0.0% |
   FFT 1D:                           0.061     0.061   0.0% |
   FFT 2D:                           0.184     0.184   0.0% |
  XC 3D grid:                        0.183     0.183   0.0% |
  vbar:                              0.010     0.010   0.0% |
P tci:                               1.910     1.910   0.1% |
SCF-cycle:                        3604.011     0.128   0.0% |
 Density:                         2367.701     0.002   0.0% |
  Atomic density matrices:           1.200     1.200   0.0% |
  Mix:                              13.506    13.506   0.4% |
  Multipole moments:                 0.027     0.027   0.0% |
  Normalize:                         0.064     0.064   0.0% |
  Pseudo density:                 2352.902     0.123   0.0% |
   Calculate density matrix:         9.899     9.899   0.3% |
   Construct density:             2342.879  2342.879  64.8% |-------------------------|
   Symmetrize density:               0.001     0.001   0.0% |
 Hamiltonian:                       80.959     0.005   0.0% |
  Atomic:                           14.480     0.166   0.0% |
   XC Correction:                   14.314    14.314   0.4% |
  Calculate atomic Hamiltonians:     1.682     1.682   0.0% |
  Communicate:                       0.000     0.000   0.0% |
  Hartree integrate/restrict:        4.592     4.592   0.1% |
  Poisson:                          43.176     2.753   0.1% |
   Communicate from 1D:              4.813     4.813   0.1% |
   Communicate from 2D:              4.834     4.834   0.1% |
   Communicate to 1D:                3.192     3.192   0.1% |
   Communicate to 2D:                4.791     4.791   0.1% |
   FFT 1D:                           5.400     5.400   0.1% |
   FFT 2D:                          17.393    17.393   0.5% |
  XC 3D grid:                       16.472    16.472   0.5% |
  vbar:                              0.551     0.551   0.0% |
 LCAO eigensolver:                1155.224     2.513   0.1% |
  Calculate projections:            79.889    79.889   2.2% ||
  DenseAtomicCorrection:           272.600   272.600   7.5% |--|
  Distribute overlap matrix:         4.223     4.223   0.1% |
  Orbital Layouts:                 445.130   445.130  12.3% |----|
  Potential matrix:                337.647   337.647   9.3% |---|
  Sum over cells:                   13.223    13.223   0.4% |
ST tci:                              0.446     0.446   0.0% |
Set symmetry:                        0.000     0.000   0.0% |
TCI: Evaluate splines:               0.162     0.162   0.0% |
mktci:                               0.007     0.007   0.0% |
Other:                               5.625     5.625   0.2% |
-----------------------------------------------------------
Total:                                      3613.363 100.0%

Memory usage: 4.49 GiB
Date: Sat Feb 21 15:52:33 2026
