
  ___ ___ ___ _ _ _  
 |   |   |_  | | | | 
 | | | | | . | | | | 
 |__ |  _|___|_____|  25.7.0
 |___|_|             

User:   mikei@Z790-AORUS-ELITE-AX
Date:   Sat Feb 21 13:43:38 2026
Arch:   x86_64
Pid:    89048
CWD:    /home/mikei/Dokumenty/code/cemea/ocx
Python: 3.10.16
gpaw:   /home/mikei/.pyenv/versions/cemea-env/lib/python3.10/site-packages/gpaw
_gpaw:  /home/mikei/.pyenv/versions/cemea-env/lib/python3.10/site-packages/
        _gpaw.cpython-310-x86_64-linux-gnu.so
ase:    /home/mikei/.pyenv/versions/cemea-env/lib/python3.10/site-packages/ase (version 3.27.0)
numpy:  /home/mikei/.pyenv/versions/cemea-env/lib/python3.10/site-packages/numpy (version 2.2.6)
scipy:  /home/mikei/.pyenv/versions/cemea-env/lib/python3.10/site-packages/scipy (version 1.15.3)
libxc:  2.x.y
units:  Angstrom and eV
cores: 1
OpenMP: False
OMP_NUM_THREADS: 1

Input parameters:
  basis: dzp
  convergence: {density: 0.0001,
                eigenstates: 1e-05,
                energy: 1e-05}
  kpts: [4 4 1]
  mode: lcao

System changes: positions, numbers, cell, pbc, initial_charges, initial_magmoms 

Initialize ...

species:
  Mo:
    name: Molybdenum
    id: ac24daaf086600a00ce6d19a74574df1
    Z: 42.0
    valence: 14
    core: 28
    charge: 0.0
    file: /home/mikei/.pyenv/versions/cemea-env/lib/python3.10/site-packages/gpaw_data/setups/Mo.LDA.gz
    compensation charges: {type: gauss,
                           rc: 0.38,
                           lmax: 2}
    cutoffs: {filter: 2.16,
              core: 1.42}
    projectors:
      #              energy  rcut
      - 4s(2.00)   -64.384   1.238
      - 5s(1.00)    -4.319   1.238
      - 4p(6.00)   -38.595   1.296
      - 5p(0.00)    -1.161   1.296
      - 4d(5.00)    -3.933   1.296
      -  d          23.278   1.296
  
    # LCAO basis set for Mo:
    #   Name: dzp
    #   File: /home/mikei/.pyenv/versions/cemea-env/lib/python3.10/site-packages/gpaw_data/setups/Mo.dzp.basis.gz
    #   Number of radial functions: 11
    #   Number of spherical harmonics: 29
    #     l=0, rc=3.5469 Bohr: 4s-sz confined orbital
    #     l=0, rc=10.0469 Bohr: 5s-sz confined orbital
    #     l=1, rc=4.0781 Bohr: 4p-sz confined orbital
    #     l=1, rc=14.0938 Bohr: 5p-sz confined orbital
    #     l=2, rc=7.2031 Bohr: 4d-sz confined orbital
    #     l=0, rc=2.1250 Bohr: 4s-dz split-valence wave
    #     l=0, rc=6.1250 Bohr: 5s-dz split-valence wave
    #     l=1, rc=2.5469 Bohr: 4p-dz split-valence wave
    #     l=1, rc=8.7656 Bohr: 5p-dz split-valence wave
    #     l=2, rc=4.2344 Bohr: 4d-dz split-valence wave
    #     l=1, rc=10.0469 Bohr: p-type Gaussian polarization
    #   Number of RI-basis functions 0

  B:
    name: Boron
    id: 02e2e0e88ef95f403158802f6b0f4231
    Z: 5.0
    valence: 3
    core: 2
    charge: 0.0
    file: /home/mikei/.pyenv/versions/cemea-env/lib/python3.10/site-packages/gpaw_data/setups/B.LDA.gz
    compensation charges: {type: gauss,
                           rc: 0.20,
                           lmax: 2}
    cutoffs: {filter: 1.14,
              core: 1.42}
    projectors:
      #              energy  rcut
      - 2s(2.00)    -9.383   0.635
      - 2p(1.00)    -3.714   0.635
      -  s          17.828   0.635
      -  p          23.498   0.635
      -  d           0.000   0.635
  
    # LCAO basis set for B:
    #   Name: dzp
    #   File: /home/mikei/.pyenv/versions/cemea-env/lib/python3.10/site-packages/gpaw_data/setups/B.dzp.basis.gz
    #   Number of radial functions: 5
    #   Number of spherical harmonics: 13
    #     l=0, rc=6.6719 Bohr: 2s-sz confined orbital
    #     l=1, rc=8.2188 Bohr: 2p-sz confined orbital
    #     l=0, rc=3.7500 Bohr: 2s-dz split-valence wave
    #     l=1, rc=4.6094 Bohr: 2p-dz split-valence wave
    #     l=2, rc=8.2188 Bohr: d-type Gaussian polarization
    #   Number of RI-basis functions 0

  H:
    name: Hydrogen
    id: 4766778ce56282eaa64abeb28b7c1de3
    Z: 1.0
    valence: 1
    core: 0
    charge: 0.0
    file: /home/mikei/.pyenv/versions/cemea-env/lib/python3.10/site-packages/gpaw_data/setups/H.LDA.gz
    compensation charges: {type: gauss,
                           rc: 0.15,
                           lmax: 2}
    cutoffs: {filter: 0.85,
              core: 0.53}
    projectors:
      #              energy  rcut
      - 1s(1.00)    -6.353   0.476
      -  s          20.858   0.476
      -  p           0.000   0.476
  
    # LCAO basis set for H:
    #   Name: dzp
    #   File: /home/mikei/.pyenv/versions/cemea-env/lib/python3.10/site-packages/gpaw_data/setups/H.dzp.basis.gz
    #   Number of radial functions: 3
    #   Number of spherical harmonics: 5
    #     l=0, rc=6.4219 Bohr: 1s-sz confined orbital
    #     l=0, rc=3.6094 Bohr: 1s-dz split-valence wave
    #     l=1, rc=6.4219 Bohr: p-type Gaussian polarization
    #   Number of RI-basis functions 0

Reference energy: -442079.223961  # eV

Spin-paired calculation

Convergence criteria:
 Maximum [total energy] change in last 3 cyles: 1e-05 eV / valence electron
 Maximum integral of absolute [dens]ity change: 0.0001 electrons / valence electron
 Maximum integral of absolute [eigenst]ate change: 1e-05 eV^2 / valence electron
 Maximum number of scf [iter]ations: 333
 (Square brackets indicate name in SCF output, whereas a 'c' in
 the SCF output indicates the quantity has converged.)

Symmetries present (total): 2

  ( 1  0  0)  ( 0  1  0)
  ( 0  1  0)  ( 1  0  0)
  ( 0  0  1)  ( 0  0  1)

16 k-points: 4 x 4 x 1 Monkhorst-Pack grid
6 k-points in the irreducible part of the Brillouin zone
       k-points in crystal coordinates                weights
   0:     0.12500000   -0.12500000    0.00000000          2/16
   1:     0.12500000    0.12500000    0.00000000          2/16
   2:     0.37500000   -0.37500000    0.00000000          2/16
   3:     0.37500000   -0.12500000    0.00000000          4/16
   4:     0.37500000    0.12500000    0.00000000          4/16
   5:     0.37500000    0.37500000    0.00000000          2/16

Wave functions: LCAO
  Diagonalizer: Serial LAPACK
  Atomic Correction: dense with blas
  Data-type: complex
 

Occupation numbers: Fermi-Dirac:
  width: 0.1000  # eV
 

Eigensolver
   LCAO using direct dense diagonalizer 

Densities:
  Coarse grid: 32*32*88 grid
  Fine grid: 64*64*176 grid
  Total Charge: 0.000000 

Density mixing:
  Method: separate
  Backend: pulay
  Linear mixing parameter: 0.05
  old densities: 5
  Damping of long wavelength oscillations: 50 

Hamiltonian:
  XC and Coulomb potentials evaluated on a 64*64*176 grid
  Using the LDA Exchange-Correlation functional
  Interpolation: tri-quintic (5. degree polynomial)
  Poisson solver: FastPoissonSolver using
    Stencil: 6*3+1=19 point O(h^6) finite-difference Laplacian
    FFT axes: [np.int64(0), np.int64(1), np.int64(2)]
    FST axes: []
 

Memory estimate:
  Process memory now: 4595.48 MiB
  Calculator: 123.85 MiB
    Density: 49.24 MiB
      Arrays: 17.88 MiB
      Localized functions: 24.49 MiB
      Mixer: 6.88 MiB
    Hamiltonian: 13.29 MiB
      Arrays: 11.69 MiB
      XC: 0.00 MiB
      Poisson: 0.00 MiB
      vbar: 1.60 MiB
    Wavefunctions: 61.33 MiB
      C [qnM]: 0.64 MiB
      S, T [2 x qmm]: 4.69 MiB
      P [aqMi]: 0.11 MiB
      BasisFunctions: 55.89 MiB
      Eigensolver: 0.00 MiB

Total number of cores used: 1

Number of atoms: 8
Number of atomic orbitals: 160
Number of bands in calculation: 44
Number of valence electrons: 66
Bands to converge: occupied

... initialized

Initializing position-dependent things.

Density initialized from atomic densities
     .--------------.  
    /|              |  
   / |              |  
  /  |              |  
 *   |              |  
 |   |              |  
 |   |              |  
 |   |              |  
 |   |              |  
 |   |              |  
 |   |              |  
 |   |  H      B    |  
 |   |              |  
 |   |       B      |  
 | Mo|    Mo        |  
 |   |              |  
 Mo  |  Mo          |  
 |   |              |  
 |   |              |  
 |   |              |  
 |   |              |  
 |   |              |  
 |   .--------------.  
 |  /              /   
 | /              /    
 |/              /     
 *--------------*      

Atomic positions and initial magnetic moments

Positions:
   0 Mo     0.000000    0.000000    8.000000    ( 0.0000,  0.0000,  0.0000)
   1 Mo     0.000000    3.050000    8.000000    ( 0.0000,  0.0000,  0.0000)
   2 B      1.525000    4.575000    9.525000    ( 0.0000,  0.0000,  0.0000)
   3 Mo     3.050000    0.000000    8.000000    ( 0.0000,  0.0000,  0.0000)
   4 B      4.575000    1.525000    9.525000    ( 0.0000,  0.0000,  0.0000)
   5 Mo     3.050000    3.050000    8.000000    ( 0.0000,  0.0000,  0.0000)
   6 B      4.575000    4.575000    9.525000    ( 0.0000,  0.0000,  0.0000)
   7 H      2.396429    2.396429   11.025000    ( 0.0000,  0.0000,  0.0000)

Unit cell:
           periodic     x           y           z      points  spacing
  1. axis:    yes    6.100000    0.000000    0.000000    32     0.1906
  2. axis:    yes    0.000000    6.100000    0.000000    32     0.1906
  3. axis:    yes    0.000000    0.000000   17.525000    88     0.1991

  Lengths:   6.100000   6.100000  17.525000
  Angles:   90.000000  90.000000  90.000000

Effective grid spacing dv^(1/3) = 0.1934

     iter     time        total  log10-change:
                         energy   eigst   dens
iter:   1 13:43:44   -53.901980        c
iter:   2 13:43:50   -50.836250        c -0.90
iter:   3 13:43:57   -49.733497        c -1.02
iter:   4 13:44:04   -47.194343        c -1.07
iter:   5 13:44:09   -47.176702        c -1.44
iter:   6 13:44:15   -46.936533        c -1.48
iter:   7 13:44:23   -46.923355        c -1.82
iter:   8 13:44:31   -46.902473        c -1.89
iter:   9 13:44:37   -46.889083        c -2.03
iter:  10 13:44:45   -46.883233        c -2.23
iter:  11 13:44:53   -46.876358        c -2.31
iter:  12 13:45:01   -46.875608        c -2.56
iter:  13 13:45:07   -46.873770        c -2.63
iter:  14 13:45:14   -46.873807        c -2.99
iter:  15 13:45:23   -46.873816c       c -3.12
iter:  16 13:45:29   -46.873878c       c -3.27
iter:  17 13:45:38   -46.873952c       c -3.38
iter:  18 13:45:45   -46.873988c       c -3.55
iter:  19 13:45:54   -46.873988c       c -3.64
iter:  20 13:46:03   -46.873984c       c -3.82
iter:  21 13:46:10   -46.873996c       c -3.97
iter:  22 13:46:18   -46.874008c       c -4.41c

Converged after 22 iterations.

Dipole moment: (-3.731772, -3.731772, -0.120547) |e|*Ang

Energy contributions relative to reference atoms: (reference = -442079.223961)

Kinetic:       -106.516938
Potential:      +71.098488
External:        +0.000000
XC:             -11.642499
Entropy (-ST):   -0.480350
Local:           +0.427116
SIC:             +0.000000
--------------------------
Free energy:    -47.114183
Extrapolated:   -46.874008

Showing only first 2 kpts
 Kpt  Band  Eigenvalues  Occupancy
  0    31     -2.83843    1.20162
  0    32     -2.79273    0.97595
  0    33     -2.72051    0.63280
  0    34     -2.37525    0.02889

  1    31     -2.83448    1.18262
  1    32     -2.82557    1.13920
  1    33     -2.65975    0.40268
  1    34     -2.38057    0.03044


Fermi level: -2.79754

No gap
No difference between direct/indirect transitions
Timing:                              incl.     excl.
-----------------------------------------------------------
Basic WFS set positions:             0.000     0.000   0.0% |
Basis functions set positions:       0.044     0.044   0.0% |
LCAO WFS Initialize:                 0.115     0.014   0.0% |
 Hamiltonian:                        0.101     0.000   0.0% |
  Atomic:                            0.031     0.001   0.0% |
   XC Correction:                    0.031     0.031   0.0% |
  Calculate atomic Hamiltonians:     0.003     0.003   0.0% |
  Communicate:                       0.000     0.000   0.0% |
  Hartree integrate/restrict:        0.003     0.003   0.0% |
  Initialize Hamiltonian:            0.000     0.000   0.0% |
  Poisson:                           0.038     0.003   0.0% |
   Communicate from 1D:              0.005     0.005   0.0% |
   Communicate from 2D:              0.005     0.005   0.0% |
   Communicate to 1D:                0.004     0.004   0.0% |
   Communicate to 2D:                0.005     0.005   0.0% |
   FFT 1D:                           0.005     0.005   0.0% |
   FFT 2D:                           0.011     0.011   0.0% |
  XC 3D grid:                        0.024     0.024   0.0% |
  vbar:                              0.001     0.001   0.0% |
P tci:                               0.081     0.081   0.1% |
SCF-cycle:                         158.609     0.032   0.0% |
 Density:                           72.417     0.000   0.0% |
  Atomic density matrices:           0.014     0.014   0.0% |
  Mix:                               1.891     1.891   1.2% |
  Multipole moments:                 0.001     0.001   0.0% |
  Normalize:                         0.001     0.001   0.0% |
  Pseudo density:                   70.510     0.004   0.0% |
   Calculate density matrix:         0.529     0.529   0.3% |
   Construct density:               69.933    69.933  43.9% |-----------------|
   Symmetrize density:               0.044     0.044   0.0% |
 Hamiltonian:                        3.101     0.001   0.0% |
  Atomic:                            0.672     0.012   0.0% |
   XC Correction:                    0.660     0.660   0.4% |
  Calculate atomic Hamiltonians:     0.075     0.075   0.0% |
  Communicate:                       0.000     0.000   0.0% |
  Hartree integrate/restrict:        0.083     0.083   0.1% |
  Poisson:                           0.893     0.064   0.0% |
   Communicate from 1D:              0.081     0.081   0.1% |
   Communicate from 2D:              0.094     0.094   0.1% |
   Communicate to 1D:                0.138     0.138   0.1% |
   Communicate to 2D:                0.129     0.129   0.1% |
   FFT 1D:                           0.125     0.125   0.1% |
   FFT 2D:                           0.261     0.261   0.2% |
  XC 3D grid:                        1.162     1.162   0.7% |
  vbar:                              0.217     0.217   0.1% |
 LCAO eigensolver:                  83.059     0.008   0.0% |
  Calculate projections:             1.087     1.087   0.7% |
  DenseAtomicCorrection:             7.348     7.348   4.6% |-|
  Distribute overlap matrix:         0.006     0.006   0.0% |
  Orbital Layouts:                  61.659    61.659  38.7% |--------------|
  Potential matrix:                 11.765    11.765   7.4% |--|
  Sum over cells:                    1.184     1.184   0.7% |
ST tci:                              0.086     0.086   0.1% |
Set symmetry:                        0.000     0.000   0.0% |
TCI: Evaluate splines:               0.168     0.168   0.1% |
mktci:                               0.004     0.004   0.0% |
Other:                               0.328     0.328   0.2% |
-----------------------------------------------------------
Total:                                       159.435 100.0%

Memory usage: 4.49 GiB
Date: Sat Feb 21 13:46:18 2026
