
  ___ ___ ___ _ _ _  
 |   |   |_  | | | | 
 | | | | | . | | | | 
 |__ |  _|___|_____|  25.7.0
 |___|_|             

User:   mikei@Z790-AORUS-ELITE-AX
Date:   Sun Feb 22 12:44:33 2026
Arch:   x86_64
Pid:    89048
CWD:    /home/mikei/Dokumenty/code/cemea/ocx
Python: 3.10.16
gpaw:   /home/mikei/.pyenv/versions/cemea-env/lib/python3.10/site-packages/gpaw
_gpaw:  /home/mikei/.pyenv/versions/cemea-env/lib/python3.10/site-packages/
        _gpaw.cpython-310-x86_64-linux-gnu.so
ase:    /home/mikei/.pyenv/versions/cemea-env/lib/python3.10/site-packages/ase (version 3.27.0)
numpy:  /home/mikei/.pyenv/versions/cemea-env/lib/python3.10/site-packages/numpy (version 2.2.6)
scipy:  /home/mikei/.pyenv/versions/cemea-env/lib/python3.10/site-packages/scipy (version 1.15.3)
libxc:  2.x.y
units:  Angstrom and eV
cores: 1
OpenMP: False
OMP_NUM_THREADS: 1

Input parameters:
  basis: dzp
  convergence: {density: 0.0001,
                eigenstates: 1e-05,
                energy: 1e-05}
  kpts: [4 4 1]
  mode: lcao

System changes: positions, numbers, cell, pbc, initial_charges, initial_magmoms 

Initialize ...

species:
  Ni:
    name: Nickel
    id: 1802175e8de9ea26d9f4394ec1a7d564
    Z: 28.0
    valence: 16
    core: 12
    charge: 0.0
    file: /home/mikei/.pyenv/versions/cemea-env/lib/python3.10/site-packages/gpaw_data/setups/Ni.LDA.gz
    compensation charges: {type: gauss,
                           rc: 0.36,
                           lmax: 2}
    cutoffs: {filter: 2.14,
              core: 1.98}
    projectors:
      #              energy  rcut
      - 4s(2.00)    -5.858   1.164
      - 3p(6.00)   -71.266   1.207
      - 4p(0.00)    -1.338   1.207
      - 3d(8.00)    -9.141   1.138
      -  s          21.353   1.164
      -  d          18.071   1.138
  
    # LCAO basis set for Ni:
    #   Name: dzp
    #   File: /home/mikei/.pyenv/versions/cemea-env/lib/python3.10/site-packages/gpaw_data/setups/Ni.dzp.basis.gz
    #   Number of radial functions: 9
    #   Number of spherical harmonics: 27
    #     l=0, rc=8.5156 Bohr: 4s-sz confined orbital
    #     l=1, rc=2.9375 Bohr: 3p-sz confined orbital
    #     l=1, rc=12.4062 Bohr: 4p-sz confined orbital
    #     l=2, rc=4.6875 Bohr: 3d-sz confined orbital
    #     l=0, rc=4.9688 Bohr: 4s-dz split-valence wave
    #     l=1, rc=2.0781 Bohr: 3p-dz split-valence wave
    #     l=1, rc=7.5469 Bohr: 4p-dz split-valence wave
    #     l=2, rc=2.9375 Bohr: 3d-dz split-valence wave
    #     l=1, rc=8.5156 Bohr: p-type Gaussian polarization
    #   Number of RI-basis functions 0

  Mo:
    name: Molybdenum
    id: ac24daaf086600a00ce6d19a74574df1
    Z: 42.0
    valence: 14
    core: 28
    charge: 0.0
    file: /home/mikei/.pyenv/versions/cemea-env/lib/python3.10/site-packages/gpaw_data/setups/Mo.LDA.gz
    compensation charges: {type: gauss,
                           rc: 0.38,
                           lmax: 2}
    cutoffs: {filter: 2.16,
              core: 1.42}
    projectors:
      #              energy  rcut
      - 4s(2.00)   -64.384   1.238
      - 5s(1.00)    -4.319   1.238
      - 4p(6.00)   -38.595   1.296
      - 5p(0.00)    -1.161   1.296
      - 4d(5.00)    -3.933   1.296
      -  d          23.278   1.296
  
    # LCAO basis set for Mo:
    #   Name: dzp
    #   File: /home/mikei/.pyenv/versions/cemea-env/lib/python3.10/site-packages/gpaw_data/setups/Mo.dzp.basis.gz
    #   Number of radial functions: 11
    #   Number of spherical harmonics: 29
    #     l=0, rc=3.5469 Bohr: 4s-sz confined orbital
    #     l=0, rc=10.0469 Bohr: 5s-sz confined orbital
    #     l=1, rc=4.0781 Bohr: 4p-sz confined orbital
    #     l=1, rc=14.0938 Bohr: 5p-sz confined orbital
    #     l=2, rc=7.2031 Bohr: 4d-sz confined orbital
    #     l=0, rc=2.1250 Bohr: 4s-dz split-valence wave
    #     l=0, rc=6.1250 Bohr: 5s-dz split-valence wave
    #     l=1, rc=2.5469 Bohr: 4p-dz split-valence wave
    #     l=1, rc=8.7656 Bohr: 5p-dz split-valence wave
    #     l=2, rc=4.2344 Bohr: 4d-dz split-valence wave
    #     l=1, rc=10.0469 Bohr: p-type Gaussian polarization
    #   Number of RI-basis functions 0

  C:
    name: Carbon
    id: d60576a1f549371a163e72552ca58787
    Z: 6.0
    valence: 4
    core: 2
    charge: 0.0
    file: /home/mikei/.pyenv/versions/cemea-env/lib/python3.10/site-packages/gpaw_data/setups/C.LDA.gz
    compensation charges: {type: gauss,
                           rc: 0.20,
                           lmax: 2}
    cutoffs: {filter: 1.14,
              core: 1.14}
    projectors:
      #              energy  rcut
      - 2s(2.00)   -13.639   0.635
      - 2p(2.00)    -5.414   0.635
      -  s          13.573   0.635
      -  p          21.797   0.635
      -  d           0.000   0.635
  
    # LCAO basis set for C:
    #   Name: dzp
    #   File: /home/mikei/.pyenv/versions/cemea-env/lib/python3.10/site-packages/gpaw_data/setups/C.dzp.basis.gz
    #   Number of radial functions: 5
    #   Number of spherical harmonics: 13
    #     l=0, rc=5.5469 Bohr: 2s-sz confined orbital
    #     l=1, rc=6.6719 Bohr: 2p-sz confined orbital
    #     l=0, rc=3.0312 Bohr: 2s-dz split-valence wave
    #     l=1, rc=3.7500 Bohr: 2p-dz split-valence wave
    #     l=2, rc=6.6719 Bohr: d-type Gaussian polarization
    #   Number of RI-basis functions 0

  Pd:
    name: Palladium
    id: e532e18c0482708fc2e61045fa7bdb18
    Z: 46.0
    valence: 16
    core: 30
    charge: 0.0
    file: /home/mikei/.pyenv/versions/cemea-env/lib/python3.10/site-packages/gpaw_data/setups/Pd.LDA.gz
    compensation charges: {type: gauss,
                           rc: 0.38,
                           lmax: 2}
    cutoffs: {filter: 2.38,
              core: 2.28}
    projectors:
      #              energy  rcut
      - 5s(0.00)    -3.604   1.228
      - 4p(6.00)   -51.371   1.360
      - 5p(0.00)    -0.356   1.360
      - 4d(10.00)    -4.308   1.228
      -  s          23.607   1.228
      -  d          22.904   1.228
  
    # LCAO basis set for Pd:
    #   Name: dzp
    #   File: /home/mikei/.pyenv/versions/cemea-env/lib/python3.10/site-packages/gpaw_data/setups/Pd.dzp.basis.gz
    #   Number of radial functions: 9
    #   Number of spherical harmonics: 27
    #     l=0, rc=10.0312 Bohr: 5s-sz confined orbital
    #     l=1, rc=3.5312 Bohr: 4p-sz confined orbital
    #     l=1, rc=16.0000 Bohr: 5p-sz confined orbital
    #     l=2, rc=6.2031 Bohr: 4d-sz confined orbital
    #     l=0, rc=6.0156 Bohr: 5s-dz split-valence wave
    #     l=1, rc=2.4062 Bohr: 4p-dz split-valence wave
    #     l=1, rc=9.9375 Bohr: 5p-dz split-valence wave
    #     l=2, rc=3.6719 Bohr: 4d-dz split-valence wave
    #     l=1, rc=10.0312 Bohr: p-type Gaussian polarization
    #   Number of RI-basis functions 0

Reference energy: -2645251.321963  # eV

Spin-paired calculation

Convergence criteria:
 Maximum [total energy] change in last 3 cyles: 1e-05 eV / valence electron
 Maximum integral of absolute [dens]ity change: 0.0001 electrons / valence electron
 Maximum integral of absolute [eigenst]ate change: 1e-05 eV^2 / valence electron
 Maximum number of scf [iter]ations: 333
 (Square brackets indicate name in SCF output, whereas a 'c' in
 the SCF output indicates the quantity has converged.)

Symmetries present (total): 1

  ( 1  0  0)
  ( 0  1  0)
  ( 0  0  1)

16 k-points: 4 x 4 x 1 Monkhorst-Pack grid
8 k-points in the irreducible part of the Brillouin zone
       k-points in crystal coordinates                weights
   0:     0.12500000   -0.37500000    0.00000000          2/16
   1:     0.12500000   -0.12500000    0.00000000          2/16
   2:     0.12500000    0.12500000    0.00000000          2/16
   3:     0.12500000    0.37500000    0.00000000          2/16
   4:     0.37500000   -0.37500000    0.00000000          2/16
   5:     0.37500000   -0.12500000    0.00000000          2/16
   6:     0.37500000    0.12500000    0.00000000          2/16
   7:     0.37500000    0.37500000    0.00000000          2/16

Wave functions: LCAO
  Diagonalizer: Serial LAPACK
  Atomic Correction: dense with blas
  Data-type: complex
 

Occupation numbers: Fermi-Dirac:
  width: 0.1000  # eV
 

Eigensolver
   LCAO using direct dense diagonalizer 

Densities:
  Coarse grid: 36*36*128 grid
  Fine grid: 72*72*256 grid
  Total Charge: 0.000000 

Density mixing:
  Method: separate
  Backend: pulay
  Linear mixing parameter: 0.05
  old densities: 5
  Damping of long wavelength oscillations: 50 

Hamiltonian:
  XC and Coulomb potentials evaluated on a 72*72*256 grid
  Using the LDA Exchange-Correlation functional
  Interpolation: tri-quintic (5. degree polynomial)
  Poisson solver: FastPoissonSolver using
    Stencil: 6*3+1=19 point O(h^6) finite-difference Laplacian
    FFT axes: [np.int64(0), np.int64(1), np.int64(2)]
    FST axes: []
 

Memory estimate:
  Process memory now: 4595.48 MiB
  Calculator: 1078.39 MiB
    Density: 232.75 MiB
      Arrays: 32.91 MiB
      Localized functions: 187.19 MiB
      Mixer: 12.66 MiB
    Hamiltonian: 35.40 MiB
      Arrays: 21.52 MiB
      XC: 0.00 MiB
      Poisson: 0.00 MiB
      vbar: 13.88 MiB
    Wavefunctions: 810.24 MiB
      C [qnM]: 71.32 MiB
      S, T [2 x qmm]: 418.97 MiB
      P [aqMi]: 8.80 MiB
      BasisFunctions: 311.15 MiB
      Eigensolver: 0.00 MiB

Total number of cores used: 1

Number of atoms: 50
Number of atomic orbitals: 1310
Number of bands in calculation: 446
Number of valence electrons: 736
Bands to converge: occupied

... initialized

Initializing position-dependent things.

Density initialized from atomic densities
      .-----------------.  
     /|                 |  
    / |                 |  
   /  |                 |  
  /   |                 |  
 *    |                 |  
 |    |                 |  
 |    |                 |  
 |    |                 |  
 |    |                 |  
 |    | Pd    Pd        |  
 |    |   Mo        Mo  |  
 |    |                 |  
 |    |Mo C      Mo C   |  
 |  Mo|       Mo        |  
 |    |                 |  
 |    |C         C      |  
 Mo Ni|   NMo   Ni      |  
 | Ni | NNi   NNi   Ni  |  
 |    |                 |  
 Ni   NNi   NNi   Ni    |  
 |  NNi   NNi   NNi     |  
 | Ni | NNi   NNi   Ni  |  
 |    |                 |  
 Ni   NNi   NNi   Ni    |  
 |   Ni    Ni    Ni     |  
 |    |                 |  
 |    |                 |  
 |    |                 |  
 |    |                 |  
 |    |                 |  
 |    .-----------------.  
 |   /                 /   
 |  /                 /    
 | /                 /     
 |/                 /      
 *-----------------*       

Atomic positions and initial magnetic moments

Positions:
   0 Ni     1.244508    1.244508    8.000000    ( 0.0000,  0.0000,  0.0000)
   1 Ni     3.733524    1.244508    8.000000    ( 0.0000,  0.0000,  0.0000)
   2 Ni     6.222540    1.244508    8.000000    ( 0.0000,  0.0000,  0.0000)
   3 Ni     1.244508    3.733524    8.000000    ( 0.0000,  0.0000,  0.0000)
   4 Ni     3.733524    3.733524    8.000000    ( 0.0000,  0.0000,  0.0000)
   5 Ni     6.222540    3.733524    8.000000    ( 0.0000,  0.0000,  0.0000)
   6 Ni     1.244508    6.222540    8.000000    ( 0.0000,  0.0000,  0.0000)
   7 Ni     3.733524    6.222540    8.000000    ( 0.0000,  0.0000,  0.0000)
   8 Ni     6.222540    6.222540    8.000000    ( 0.0000,  0.0000,  0.0000)
   9 Ni     0.000000    0.000000    9.760000    ( 0.0000,  0.0000,  0.0000)
  10 Ni     2.489016    0.000000    9.760000    ( 0.0000,  0.0000,  0.0000)
  11 Ni     4.978032    0.000000    9.760000    ( 0.0000,  0.0000,  0.0000)
  12 Ni     0.000000    2.489016    9.760000    ( 0.0000,  0.0000,  0.0000)
  13 Ni     2.489016    2.489016    9.760000    ( 0.0000,  0.0000,  0.0000)
  14 Ni     4.978032    2.489016    9.760000    ( 0.0000,  0.0000,  0.0000)
  15 Ni     0.000000    4.978032    9.760000    ( 0.0000,  0.0000,  0.0000)
  16 Ni     2.489016    4.978032    9.760000    ( 0.0000,  0.0000,  0.0000)
  17 Ni     4.978032    4.978032    9.760000    ( 0.0000,  0.0000,  0.0000)
  18 Ni     1.244508    1.244508   11.520000    ( 0.0000,  0.0000,  0.0000)
  19 Ni     3.733524    1.244508   11.520000    ( 0.0000,  0.0000,  0.0000)
  20 Ni     6.222540    1.244508   11.520000    ( 0.0000,  0.0000,  0.0000)
  21 Ni     1.244508    3.733524   11.520000    ( 0.0000,  0.0000,  0.0000)
  22 Ni     3.733524    3.733524   11.520000    ( 0.0000,  0.0000,  0.0000)
  23 Ni     6.222540    3.733524   11.520000    ( 0.0000,  0.0000,  0.0000)
  24 Ni     1.244508    6.222540   11.520000    ( 0.0000,  0.0000,  0.0000)
  25 Ni     3.733524    6.222540   11.520000    ( 0.0000,  0.0000,  0.0000)
  26 Ni     6.222540    6.222540   11.520000    ( 0.0000,  0.0000,  0.0000)
  27 Ni     0.000000    0.000000   13.280000    ( 0.0000,  0.0000,  0.0000)
  28 Ni     2.489016    0.000000   13.280000    ( 0.0000,  0.0000,  0.0000)
  29 Ni     4.978032    0.000000   13.280000    ( 0.0000,  0.0000,  0.0000)
  30 Ni     0.000000    2.489016   13.280000    ( 0.0000,  0.0000,  0.0000)
  31 Ni     2.489016    2.489016   13.280000    ( 0.0000,  0.0000,  0.0000)
  32 Ni     4.978032    2.489016   13.280000    ( 0.0000,  0.0000,  0.0000)
  33 Ni     0.000000    4.978032   13.280000    ( 0.0000,  0.0000,  0.0000)
  34 Ni     2.489016    4.978032   13.280000    ( 0.0000,  0.0000,  0.0000)
  35 Ni     4.978032    4.978032   13.280000    ( 0.0000,  0.0000,  0.0000)
  36 Mo     0.000000    0.000000   15.480000    ( 0.0000,  0.0000,  0.0000)
  37 Mo     2.060000    2.060000   17.540000    ( 0.0000,  0.0000,  0.0000)
  38 C      2.060000    2.060000   15.480000    ( 0.0000,  0.0000,  0.0000)
  39 Mo     0.000000    4.120000   15.480000    ( 0.0000,  0.0000,  0.0000)
  40 Mo     2.060000    6.180000   17.540000    ( 0.0000,  0.0000,  0.0000)
  41 C      2.060000    6.180000   15.480000    ( 0.0000,  0.0000,  0.0000)
  42 Mo     4.120000    0.000000   15.480000    ( 0.0000,  0.0000,  0.0000)
  43 Mo     6.180000    2.060000   17.540000    ( 0.0000,  0.0000,  0.0000)
  44 C      6.180000    2.060000   15.480000    ( 0.0000,  0.0000,  0.0000)
  45 Mo     4.120000    4.120000   15.480000    ( 0.0000,  0.0000,  0.0000)
  46 Mo     6.180000    6.180000   17.540000    ( 0.0000,  0.0000,  0.0000)
  47 C      6.180000    6.180000   15.480000    ( 0.0000,  0.0000,  0.0000)
  48 Pd     1.991786    3.191786   19.340000    ( 0.0000,  0.0000,  0.0000)
  49 Pd     4.391786    3.191786   19.340000    ( 0.0000,  0.0000,  0.0000)

Unit cell:
           periodic     x           y           z      points  spacing
  1. axis:    yes    7.467048    0.000000    0.000000    36     0.2074
  2. axis:    yes    0.000000    7.467048    0.000000    36     0.2074
  3. axis:    yes    0.000000    0.000000   25.540000   128     0.1995

  Lengths:   7.467048   7.467048  25.540000
  Angles:   90.000000  90.000000  90.000000

Effective grid spacing dv^(1/3) = 0.2048

     iter     time        total  log10-change:
                         energy   eigst   dens
iter:   1 12:45:06 -1090.375278        c
iter:   2 12:46:40 -4164.942102        c -0.93
iter:   3 12:48:17  -618.449598        c -0.42
iter:   4 12:49:51  -429.324712        c -1.20
iter:   5 12:51:32  -401.992838        c -1.43
iter:   6 12:53:11  -396.505836        c -1.43
iter:   7 12:54:48  -390.463738        c -1.53
iter:   8 12:56:22  -478.161818        c -1.62
iter:   9 12:57:57  -403.111955        c -1.26
iter:  10 12:59:35  -428.444608        c -1.59
iter:  11 13:01:09  -398.599596        c -1.52
iter:  12 13:02:43  -415.945316        c -1.68
iter:  13 13:04:22  -405.795928        c -1.56
iter:  14 13:05:57  -389.522264        c -1.65
iter:  15 13:07:35  -413.871069        c -1.78
iter:  16 13:09:09  -430.525932        c -1.43
iter:  17 13:10:44  -420.866846        c -1.56
iter:  18 13:12:18  -419.377149        c -1.62
iter:  19 13:13:53  -438.802831        c -1.59
iter:  20 13:15:30  -414.689659        c -1.57
iter:  21 13:17:06  -510.463339        c -1.81
iter:  22 13:18:41  -389.656402        c -1.18
iter:  23 13:20:16  -385.967594        c -1.81
iter:  24 13:21:52  -388.778327        c -1.93
iter:  25 13:23:26  -384.720865        c -1.87
iter:  26 13:25:00  -382.899362        c -1.98
iter:  27 13:26:35  -387.603649        c -2.14
iter:  28 13:28:09  -383.029350        c -1.77
iter:  29 13:29:43  -382.475284        c -2.14
iter:  30 13:31:17  -382.032591        c -2.24
iter:  31 13:32:52  -382.198239        c -2.40
iter:  32 13:34:29  -381.904322        c -2.30
iter:  33 13:36:03  -382.787163        c -2.44
iter:  34 13:37:37  -381.791492        c -2.20
iter:  35 13:39:14  -381.657487        c -2.53
iter:  36 13:40:53  -381.706393        c -2.73
iter:  37 13:42:31  -381.535445        c -2.61
iter:  38 13:44:10  -381.588442        c -2.88
iter:  39 13:45:49  -381.498643        c -2.79
iter:  40 13:47:26  -381.483363        c -3.02
iter:  41 13:49:06  -381.518439        c -2.86
iter:  42 13:50:41  -381.476312        c -2.99
iter:  43 13:52:19  -381.533006        c -2.94
iter:  44 13:53:54  -381.516643        c -2.96
iter:  45 13:55:28  -381.471458        c -3.05
iter:  46 13:57:06  -381.486281        c -3.12
iter:  47 13:58:40  -381.462635        c -3.21
iter:  48 14:00:14  -381.467366        c -3.19
iter:  49 14:01:49  -381.471393        c -3.36
iter:  50 14:03:28  -381.459377        c -3.29
iter:  51 14:05:03  -381.468037        c -3.26
iter:  52 14:06:38  -381.463815        c -3.42
iter:  53 14:08:12  -381.474789        c -3.41
iter:  54 14:09:49  -381.464234        c -3.42
iter:  55 14:11:26  -381.491588        c -3.43
iter:  56 14:13:00  -381.478125        c -2.94
iter:  57 14:14:34  -381.463517        c -3.38
iter:  58 14:16:08  -381.462422        c -3.60
iter:  59 14:17:42  -381.462072c       c -3.64
iter:  60 14:19:17  -381.462870c       c -3.66
iter:  61 14:20:51  -381.497849        c -3.64
iter:  62 14:22:25  -381.461806        c -3.15
iter:  63 14:23:59  -381.468127        c -3.55
iter:  64 14:25:37  -381.465369c       c -3.42
iter:  65 14:27:11  -381.462822c       c -3.76
iter:  66 14:28:48  -381.464093c       c -3.85
iter:  67 14:30:23  -381.461141c       c -3.93
iter:  68 14:32:02  -381.463413c       c -3.83
iter:  69 14:33:37  -381.465145c       c -3.94
iter:  70 14:35:11  -381.462593c       c -3.90
iter:  71 14:36:46  -381.462965c       c -3.91
iter:  72 14:38:23  -381.461139c       c -3.88
iter:  73 14:39:58  -381.469647        c -3.79
iter:  74 14:41:32  -381.464022        c -3.72
iter:  75 14:43:10  -381.461421        c -3.96
iter:  76 14:44:44  -381.462611c       c -3.98
iter:  77 14:46:22  -381.463219c       c -4.08c

Converged after 77 iterations.

Dipole moment: (-7.839048, -7.446920, 0.512904) |e|*Ang

Energy contributions relative to reference atoms: (reference = -2645251.321963)

Kinetic:        -16.995490
Potential:      +17.911288
External:        +0.000000
XC:            -379.382583
Entropy (-ST):   -3.762962
Local:           -1.114953
SIC:             +0.000000
--------------------------
Free energy:   -383.344700
Extrapolated:  -381.463219

Showing only first 2 kpts
 Kpt  Band  Eigenvalues  Occupancy
  0   366      0.84558    1.20850
  0   367      0.85750    1.15086
  0   368      0.87689    1.05500
  0   369      0.89820    0.94852

  1   366      0.82293    1.31390
  1   367      0.83229    1.27111
  1   368      0.84903    1.19195
  1   369      0.86245    1.12658


Fermi level: 0.88790

No gap
No difference between direct/indirect transitions
Timing:                              incl.     excl.
-----------------------------------------------------------
Basic WFS set positions:             0.000     0.000   0.0% |
Basis functions set positions:       0.188     0.188   0.0% |
LCAO WFS Initialize:                 0.413     0.095   0.0% |
 Hamiltonian:                        0.318     0.000   0.0% |
  Atomic:                            0.160     0.002   0.0% |
   XC Correction:                    0.158     0.158   0.0% |
  Calculate atomic Hamiltonians:     0.027     0.027   0.0% |
  Communicate:                       0.000     0.000   0.0% |
  Hartree integrate/restrict:        0.006     0.006   0.0% |
  Initialize Hamiltonian:            0.000     0.000   0.0% |
  Poisson:                           0.077     0.006   0.0% |
   Communicate from 1D:              0.008     0.008   0.0% |
   Communicate from 2D:              0.006     0.006   0.0% |
   Communicate to 1D:                0.010     0.010   0.0% |
   Communicate to 2D:                0.011     0.011   0.0% |
   FFT 1D:                           0.007     0.007   0.0% |
   FFT 2D:                           0.029     0.029   0.0% |
  XC 3D grid:                        0.046     0.046   0.0% |
  vbar:                              0.003     0.003   0.0% |
P tci:                               5.387     5.387   0.1% |
SCF-cycle:                        7295.577     0.247   0.0% |
 Density:                         5667.765     0.001   0.0% |
  Atomic density matrices:           1.458     1.458   0.0% |
  Mix:                               8.213     8.213   0.1% |
  Multipole moments:                 0.022     0.022   0.0% |
  Normalize:                         0.010     0.010   0.0% |
  Pseudo density:                 5658.061     0.030   0.0% |
   Calculate density matrix:        12.271    12.271   0.2% |
   Construct density:             5645.759  5645.759  77.2% |------------------------------|
   Symmetrize density:               0.001     0.001   0.0% |
 Hamiltonian:                       25.142     0.003   0.0% |
  Atomic:                           12.116     0.135   0.0% |
   XC Correction:                   11.980    11.980   0.2% |
  Calculate atomic Hamiltonians:     2.023     2.023   0.0% |
  Communicate:                       0.000     0.000   0.0% |
  Hartree integrate/restrict:        0.459     0.459   0.0% |
  Poisson:                           5.481     0.430   0.0% |
   Communicate from 1D:              0.625     0.625   0.0% |
   Communicate from 2D:              0.463     0.463   0.0% |
   Communicate to 1D:                0.553     0.553   0.0% |
   Communicate to 2D:                0.712     0.712   0.0% |
   FFT 1D:                           0.613     0.613   0.0% |
   FFT 2D:                           2.084     2.084   0.0% |
  XC 3D grid:                        4.497     4.497   0.1% |
  vbar:                              0.563     0.563   0.0% |
 LCAO eigensolver:                1602.424     2.388   0.0% |
  Calculate projections:            61.895    61.895   0.8% |
  DenseAtomicCorrection:           235.037   235.037   3.2% ||
  Distribute overlap matrix:         4.583     4.583   0.1% |
  Orbital Layouts:                 329.049   329.049   4.5% |-|
  Potential matrix:                870.096   870.096  11.9% |----|
  Sum over cells:                   99.375    99.375   1.4% ||
ST tci:                              2.073     2.073   0.0% |
Set symmetry:                        0.000     0.000   0.0% |
TCI: Evaluate splines:               0.579     0.579   0.0% |
mktci:                               0.027     0.027   0.0% |
Other:                               4.273     4.273   0.1% |
-----------------------------------------------------------
Total:                                      7308.518 100.0%

Memory usage: 4.49 GiB
Date: Sun Feb 22 14:46:22 2026
