
  ___ ___ ___ _ _ _  
 |   |   |_  | | | | 
 | | | | | . | | | | 
 |__ |  _|___|_____|  25.7.0
 |___|_|             

User:   ubuntu@third-test
Date:   Thu Feb 12 18:25:28 2026
Arch:   x86_64
Pid:    1539777
CWD:    /mnt/vdd1/work/cemea/fairchem/src/fairchem/applications/ocx/mo_h_adsorption_workflow
Python: 3.10.16
gpaw:   /home/ubuntu/.pyenv/versions/cemea-env/lib/python3.10/site-packages/gpaw
_gpaw:  /home/ubuntu/.pyenv/versions/cemea-env/lib/python3.10/site-packages/
        _gpaw.cpython-310-x86_64-linux-gnu.so
ase:    /home/ubuntu/.pyenv/versions/cemea-env/lib/python3.10/site-packages/ase (version 3.27.0)
numpy:  /home/ubuntu/.pyenv/versions/cemea-env/lib/python3.10/site-packages/numpy (version 2.2.6)
scipy:  /home/ubuntu/.pyenv/versions/cemea-env/lib/python3.10/site-packages/scipy (version 1.15.3)
libxc:  2.x.y
units:  Angstrom and eV
cores: 1
OpenMP: False
OMP_NUM_THREADS: 1

Input parameters:
  basis: dzp
  convergence: {density: 0.0001,
                eigenstates: 1e-05,
                energy: 1e-05}
  kpts: [4 4 1]
  mode: lcao

System changes: positions, numbers, cell, pbc, initial_charges, initial_magmoms 

Initialize ...

species:
  Mo:
    name: Molybdenum
    id: ac24daaf086600a00ce6d19a74574df1
    Z: 42.0
    valence: 14
    core: 28
    charge: 0.0
    file: /home/ubuntu/.pyenv/versions/cemea-env/lib/python3.10/site-packages/gpaw_data/setups/Mo.LDA.gz
    compensation charges: {type: gauss,
                           rc: 0.38,
                           lmax: 2}
    cutoffs: {filter: 2.16,
              core: 1.42}
    projectors:
      #              energy  rcut
      - 4s(2.00)   -64.384   1.238
      - 5s(1.00)    -4.319   1.238
      - 4p(6.00)   -38.595   1.296
      - 5p(0.00)    -1.161   1.296
      - 4d(5.00)    -3.933   1.296
      -  d          23.278   1.296
  
    # LCAO basis set for Mo:
    #   Name: dzp
    #   File: /home/ubuntu/.pyenv/versions/cemea-env/lib/python3.10/site-packages/gpaw_data/setups/Mo.dzp.basis.gz
    #   Number of radial functions: 11
    #   Number of spherical harmonics: 29
    #     l=0, rc=3.5469 Bohr: 4s-sz confined orbital
    #     l=0, rc=10.0469 Bohr: 5s-sz confined orbital
    #     l=1, rc=4.0781 Bohr: 4p-sz confined orbital
    #     l=1, rc=14.0938 Bohr: 5p-sz confined orbital
    #     l=2, rc=7.2031 Bohr: 4d-sz confined orbital
    #     l=0, rc=2.1250 Bohr: 4s-dz split-valence wave
    #     l=0, rc=6.1250 Bohr: 5s-dz split-valence wave
    #     l=1, rc=2.5469 Bohr: 4p-dz split-valence wave
    #     l=1, rc=8.7656 Bohr: 5p-dz split-valence wave
    #     l=2, rc=4.2344 Bohr: 4d-dz split-valence wave
    #     l=1, rc=10.0469 Bohr: p-type Gaussian polarization
    #   Number of RI-basis functions 0

  Se:
    name: Selenium
    id: 32bc71fdf0f79e2eec071fc2341e94af
    Z: 34.0
    valence: 6
    core: 28
    charge: 0.0
    file: /home/ubuntu/.pyenv/versions/cemea-env/lib/python3.10/site-packages/gpaw_data/setups/Se.LDA.gz
    compensation charges: {type: gauss,
                           rc: 0.27,
                           lmax: 2}
    cutoffs: {filter: 1.77,
              core: 2.67}
    projectors:
      #              energy  rcut
      - 4s(2.00)   -17.472   0.847
      - 4p(4.00)    -6.656   1.005
      -  s           9.739   0.847
      -  p          20.555   1.005
      -  d           0.000   0.847
  
    # LCAO basis set for Se:
    #   Name: dzp
    #   File: /home/ubuntu/.pyenv/versions/cemea-env/lib/python3.10/site-packages/gpaw_data/setups/Se.dzp.basis.gz
    #   Number of radial functions: 5
    #   Number of spherical harmonics: 13
    #     l=0, rc=5.7344 Bohr: 4s-sz confined orbital
    #     l=1, rc=7.2656 Bohr: 4p-sz confined orbital
    #     l=0, rc=3.1875 Bohr: 4s-dz split-valence wave
    #     l=1, rc=4.2188 Bohr: 4p-dz split-valence wave
    #     l=2, rc=7.2656 Bohr: d-type Gaussian polarization
    #   Number of RI-basis functions 0

Reference energy: -2794630.110786  # eV

Spin-paired calculation

Convergence criteria:
 Maximum [total energy] change in last 3 cyles: 1e-05 eV / valence electron
 Maximum integral of absolute [dens]ity change: 0.0001 electrons / valence electron
 Maximum integral of absolute [eigenst]ate change: 1e-05 eV^2 / valence electron
 Maximum number of scf [iter]ations: 333
 (Square brackets indicate name in SCF output, whereas a 'c' in
 the SCF output indicates the quantity has converged.)

Symmetries present (total): 1

  ( 1  0  0)
  ( 0  1  0)
  ( 0  0  1)

16 k-points: 4 x 4 x 1 Monkhorst-Pack grid
8 k-points in the irreducible part of the Brillouin zone
       k-points in crystal coordinates                weights
   0:     0.12500000   -0.37500000    0.00000000          2/16
   1:     0.12500000   -0.12500000    0.00000000          2/16
   2:     0.12500000    0.12500000    0.00000000          2/16
   3:     0.12500000    0.37500000    0.00000000          2/16
   4:     0.37500000   -0.37500000    0.00000000          2/16
   5:     0.37500000   -0.12500000    0.00000000          2/16
   6:     0.37500000    0.12500000    0.00000000          2/16
   7:     0.37500000    0.37500000    0.00000000          2/16

Wave functions: LCAO
  Diagonalizer: Serial LAPACK
  Atomic Correction: dense with blas
  Data-type: complex
 

Occupation numbers: Fermi-Dirac:
  width: 0.1000  # eV
 

Eigensolver
   LCAO using direct dense diagonalizer 

Densities:
  Coarse grid: 160*28*96 grid
  Fine grid: 320*56*192 grid
  Total Charge: 0.000000 

Density mixing:
  Method: separate
  Backend: pulay
  Linear mixing parameter: 0.05
  old densities: 5
  Damping of long wavelength oscillations: 50 

Hamiltonian:
  XC and Coulomb potentials evaluated on a 320*56*192 grid
  Using the LDA Exchange-Correlation functional
  Interpolation: tri-quintic (5. degree polynomial)
  Poisson solver: FastPoissonSolver using
    Stencil: 8*3+1=25 point O(h^6) finite-difference Laplacian
    FFT axes: [np.int64(0), np.int64(1), np.int64(2)]
    FST axes: []
 

Memory estimate:
  Process memory now: 1600.46 MiB
  Calculator: 528.88 MiB
    Density: 214.52 MiB
      Arrays: 85.31 MiB
      Localized functions: 96.40 MiB
      Mixer: 32.81 MiB
    Hamiltonian: 62.42 MiB
      Arrays: 55.78 MiB
      XC: 0.00 MiB
      Poisson: 0.00 MiB
      vbar: 6.64 MiB
    Wavefunctions: 251.93 MiB
      C [qnM]: 14.10 MiB
      S, T [2 x qmm]: 97.21 MiB
      P [aqMi]: 2.46 MiB
      BasisFunctions: 138.17 MiB
      Eigensolver: 0.00 MiB

Total number of cores used: 1

Number of atoms: 35
Number of atomic orbitals: 631
Number of bands in calculation: 183
Number of valence electrons: 298
Bands to converge: occupied

... initialized

Initializing position-dependent things.

Density initialized from atomic densities
                                                                   
                                                                   
                                                                   
                                                                   
          Se      Se      Se      Se      Se      Se               
            Se      Se      Se      Se      Se      Se             
                                                                   
                 Mo      Mo      Mo      Mo      Mo                
           MoSe    MoSe    MoSe    MoSe    MoSe    MoSe            
                                                                   
                Se      Se      Se      Se      Se      Se         
                                                                   
                                                                   
                                                                   
                                                                   

Atomic positions and initial magnetic moments

Positions:
   0 Mo     9.237604    0.000000    9.559400    ( 0.0000,  0.0000,  0.0000)
   1 Se     9.237604    1.898905   11.118800    ( 0.0000,  0.0000,  0.0000)
   2 Se    10.882104    0.949453    8.000000    ( 0.0000,  0.0000,  0.0000)
   3 Se     7.593104    4.747263   11.118800    ( 0.0000,  0.0000,  0.0000)
   4 Se     9.237604    3.797810    8.000000    ( 0.0000,  0.0000,  0.0000)
   5 Mo    12.526604    0.000000    9.559400    ( 0.0000,  0.0000,  0.0000)
   6 Se    12.526604    1.898905   11.118800    ( 0.0000,  0.0000,  0.0000)
   7 Se    14.171104    0.949453    8.000000    ( 0.0000,  0.0000,  0.0000)
   8 Mo    10.882104    2.848358    9.559400    ( 0.0000,  0.0000,  0.0000)
   9 Se    10.882104    4.747263   11.118800    ( 0.0000,  0.0000,  0.0000)
  10 Se    12.526604    3.797810    8.000000    ( 0.0000,  0.0000,  0.0000)
  11 Mo    15.815604    0.000000    9.559400    ( 0.0000,  0.0000,  0.0000)
  12 Se    15.815604    1.898905   11.118800    ( 0.0000,  0.0000,  0.0000)
  13 Se    17.460104    0.949453    8.000000    ( 0.0000,  0.0000,  0.0000)
  14 Mo    14.171104    2.848358    9.559400    ( 0.0000,  0.0000,  0.0000)
  15 Se    14.171104    4.747263   11.118800    ( 0.0000,  0.0000,  0.0000)
  16 Se    15.815604    3.797810    8.000000    ( 0.0000,  0.0000,  0.0000)
  17 Mo    19.104604    0.000000    9.559400    ( 0.0000,  0.0000,  0.0000)
  18 Se    19.104604    1.898905   11.118800    ( 0.0000,  0.0000,  0.0000)
  19 Se    20.749104    0.949453    8.000000    ( 0.0000,  0.0000,  0.0000)
  20 Mo    17.460104    2.848358    9.559400    ( 0.0000,  0.0000,  0.0000)
  21 Se    17.460104    4.747263   11.118800    ( 0.0000,  0.0000,  0.0000)
  22 Se    19.104604    3.797810    8.000000    ( 0.0000,  0.0000,  0.0000)
  23 Mo    22.393604    0.000000    9.559400    ( 0.0000,  0.0000,  0.0000)
  24 Se    22.393604    1.898905   11.118800    ( 0.0000,  0.0000,  0.0000)
  25 Se    24.038104    0.949453    8.000000    ( 0.0000,  0.0000,  0.0000)
  26 Mo    20.749104    2.848358    9.559400    ( 0.0000,  0.0000,  0.0000)
  27 Se    20.749104    4.747263   11.118800    ( 0.0000,  0.0000,  0.0000)
  28 Se    22.393604    3.797810    8.000000    ( 0.0000,  0.0000,  0.0000)
  29 Mo    25.682604    0.000000    9.559400    ( 0.0000,  0.0000,  0.0000)
  30 Se    25.682604    1.898905   11.118800    ( 0.0000,  0.0000,  0.0000)
  31 Se    27.327104    0.949453    8.000000    ( 0.0000,  0.0000,  0.0000)
  32 Mo    24.038104    2.848358    9.559400    ( 0.0000,  0.0000,  0.0000)
  33 Se    24.038104    4.747263   11.118800    ( 0.0000,  0.0000,  0.0000)
  34 Se    25.682604    3.797810    8.000000    ( 0.0000,  0.0000,  0.0000)

Unit cell:
           periodic     x           y           z      points  spacing
  1. axis:    yes   37.112875    0.000000    0.000000   160     0.2009
  2. axis:    yes   -3.289000    5.696715    0.000000    28     0.2035
  3. axis:    yes    0.000000    0.000000   19.118800    96     0.1992

  Lengths:  37.112875   6.578000  19.118800
  Angles:   90.000000  90.000000 120.000000

Effective grid spacing dv^(1/3) = 0.2110

     iter     time        total  log10-change:
                         energy   eigst   dens
iter:   1 18:25:45  -240.653979        c
iter:   2 18:26:19  -235.746373        c -1.20
iter:   3 18:26:53  -233.612865        c -1.28
iter:   4 18:27:28  -231.916746        c -1.31
iter:   5 18:28:03  -231.151810        c -1.33
iter:   6 18:28:36  -229.734728        c -1.39
iter:   7 18:29:11  -229.071017        c -1.50
iter:   8 18:29:45  -228.838338        c -1.71
iter:   9 18:30:20  -228.795695        c -1.95
iter:  10 18:30:54  -228.747369        c -2.03
iter:  11 18:31:28  -228.718521        c -2.14
iter:  12 18:32:01  -228.655161        c -2.17
iter:  13 18:32:36  -228.636523        c -2.42
iter:  14 18:33:10  -228.633245        c -2.56
iter:  15 18:33:44  -228.629782        c -2.66
iter:  16 18:34:17  -228.627653        c -2.74
iter:  17 18:34:52  -228.627678c       c -2.82
iter:  18 18:35:25  -228.624613        c -2.91
iter:  19 18:36:00  -228.624942        c -3.03
iter:  20 18:36:34  -228.624440c       c -3.27
iter:  21 18:37:09  -228.624670c       c -3.38
iter:  22 18:37:43  -228.624519c       c -3.71
iter:  23 18:38:18  -228.624546c       c -3.82
iter:  24 18:38:50  -228.624620c       c -3.88
iter:  25 18:39:24  -228.624511c       c -3.98
iter:  26 18:39:58  -228.624601c       c -4.05c

Converged after 26 iterations.

Dipole moment: (2.200893, -6.703880, 0.019962) |e|*Ang

Energy contributions relative to reference atoms: (reference = -2794630.110786)

Kinetic:       +320.487140
Potential:     -335.350250
External:        +0.000000
XC:            -215.477816
Entropy (-ST):   -0.615121
Local:           +2.023885
SIC:             +0.000000
--------------------------
Free energy:   -228.932161
Extrapolated:  -228.624601

Showing only first 2 kpts
 Kpt  Band  Eigenvalues  Occupancy
  0   147     -2.76510    1.72384
  0   148     -2.59298    1.05501
  0   149     -2.45871    0.45147
  0   150     -2.34289    0.16776

  1   147     -2.91401    1.93025
  1   148     -2.62432    1.20864
  1   149     -2.52272    0.71216
  1   150     -2.41868    0.32687


Fermi level: -2.58197

Gap: 0.070 eV
Transition (v -> c):
  (s=0, k=0, n=148, [0.12, -0.38, 0.00]) -> (s=0, k=1, n=149, [0.12, -0.12, 0.00])
Direct/indirect transitions are different
Direct gap: 0.102 eV
Transition at: (s=0, k=1, n=148, [0.12, -0.12, 0.00])
Timing:                              incl.     excl.
-----------------------------------------------------------
Basic WFS set positions:             0.001     0.001   0.0% |
Basis functions set positions:       0.171     0.171   0.0% |
LCAO WFS Initialize:                 1.298     0.213   0.0% |
 Hamiltonian:                        1.086     0.000   0.0% |
  Atomic:                            0.231     0.002   0.0% |
   XC Correction:                    0.229     0.229   0.0% |
  Calculate atomic Hamiltonians:     0.019     0.019   0.0% |
  Communicate:                       0.000     0.000   0.0% |
  Hartree integrate/restrict:        0.061     0.061   0.0% |
  Initialize Hamiltonian:            0.000     0.000   0.0% |
  Poisson:                           0.567     0.024   0.0% |
   Communicate from 1D:              0.080     0.080   0.0% |
   Communicate from 2D:              0.081     0.081   0.0% |
   Communicate to 1D:                0.097     0.097   0.0% |
   Communicate to 2D:                0.078     0.078   0.0% |
   FFT 1D:                           0.052     0.052   0.0% |
   FFT 2D:                           0.154     0.154   0.0% |
  XC 3D grid:                        0.179     0.179   0.0% |
  vbar:                              0.028     0.028   0.0% |
P tci:                               2.600     2.600   0.3% |
SCF-cycle:                         861.648     0.037   0.0% |
 Density:                          609.640     0.001   0.0% |
  Atomic density matrices:           0.344     0.344   0.0% |
  Mix:                               6.834     6.834   0.8% |
  Multipole moments:                 0.014     0.014   0.0% |
  Normalize:                         0.014     0.014   0.0% |
  Pseudo density:                  602.433     0.054   0.0% |
   Calculate density matrix:         3.758     3.758   0.4% |
   Construct density:              598.620   598.620  68.8% |---------------------------|
   Symmetrize density:               0.001     0.001   0.0% |
 Hamiltonian:                       24.974     0.003   0.0% |
  Atomic:                            5.757     0.056   0.0% |
   XC Correction:                    5.700     5.700   0.7% |
  Calculate atomic Hamiltonians:     0.484     0.484   0.1% |
  Communicate:                       0.000     0.000   0.0% |
  Hartree integrate/restrict:        1.304     1.304   0.1% |
  Poisson:                          12.388     0.443   0.1% |
   Communicate from 1D:              1.836     1.836   0.2% |
   Communicate from 2D:              1.858     1.858   0.2% |
   Communicate to 1D:                2.014     2.014   0.2% |
   Communicate to 2D:                1.802     1.802   0.2% |
   FFT 1D:                           1.181     1.181   0.1% |
   FFT 2D:                           3.255     3.255   0.4% |
  XC 3D grid:                        4.469     4.469   0.5% |
  vbar:                              0.568     0.568   0.1% |
 LCAO eigensolver:                 226.997     0.113   0.0% |
  Calculate projections:             6.492     6.492   0.7% |
  DenseAtomicCorrection:            41.252    41.252   4.7% |-|
  Distribute overlap matrix:         0.151     0.151   0.0% |
  Orbital Layouts:                  60.857    60.857   7.0% |--|
  Potential matrix:                114.808   114.808  13.2% |----|
  Sum over cells:                    3.325     3.325   0.4% |
ST tci:                              0.581     0.581   0.1% |
Set symmetry:                        0.001     0.001   0.0% |
TCI: Evaluate splines:               0.266     0.266   0.0% |
mktci:                               0.012     0.012   0.0% |
Other:                               3.428     3.428   0.4% |
-----------------------------------------------------------
Total:                                       870.007 100.0%

Memory usage: 1.56 GiB
Date: Thu Feb 12 18:39:58 2026
