
  ___ ___ ___ _ _ _  
 |   |   |_  | | | | 
 | | | | | . | | | | 
 |__ |  _|___|_____|  25.7.0
 |___|_|             

User:   ubuntu@third-test
Date:   Thu Feb 12 18:39:58 2026
Arch:   x86_64
Pid:    1539777
CWD:    /mnt/vdd1/work/cemea/fairchem/src/fairchem/applications/ocx/mo_h_adsorption_workflow
Python: 3.10.16
gpaw:   /home/ubuntu/.pyenv/versions/cemea-env/lib/python3.10/site-packages/gpaw
_gpaw:  /home/ubuntu/.pyenv/versions/cemea-env/lib/python3.10/site-packages/
        _gpaw.cpython-310-x86_64-linux-gnu.so
ase:    /home/ubuntu/.pyenv/versions/cemea-env/lib/python3.10/site-packages/ase (version 3.27.0)
numpy:  /home/ubuntu/.pyenv/versions/cemea-env/lib/python3.10/site-packages/numpy (version 2.2.6)
scipy:  /home/ubuntu/.pyenv/versions/cemea-env/lib/python3.10/site-packages/scipy (version 1.15.3)
libxc:  2.x.y
units:  Angstrom and eV
cores: 1
OpenMP: False
OMP_NUM_THREADS: 1

Input parameters:
  basis: dzp
  convergence: {density: 0.0001,
                eigenstates: 1e-05,
                energy: 1e-05}
  kpts: [4 4 1]
  mode: lcao

System changes: positions, numbers, cell, pbc, initial_charges, initial_magmoms 

Initialize ...

species:
  Mo:
    name: Molybdenum
    id: ac24daaf086600a00ce6d19a74574df1
    Z: 42.0
    valence: 14
    core: 28
    charge: 0.0
    file: /home/ubuntu/.pyenv/versions/cemea-env/lib/python3.10/site-packages/gpaw_data/setups/Mo.LDA.gz
    compensation charges: {type: gauss,
                           rc: 0.38,
                           lmax: 2}
    cutoffs: {filter: 2.16,
              core: 1.42}
    projectors:
      #              energy  rcut
      - 4s(2.00)   -64.384   1.238
      - 5s(1.00)    -4.319   1.238
      - 4p(6.00)   -38.595   1.296
      - 5p(0.00)    -1.161   1.296
      - 4d(5.00)    -3.933   1.296
      -  d          23.278   1.296
  
    # LCAO basis set for Mo:
    #   Name: dzp
    #   File: /home/ubuntu/.pyenv/versions/cemea-env/lib/python3.10/site-packages/gpaw_data/setups/Mo.dzp.basis.gz
    #   Number of radial functions: 11
    #   Number of spherical harmonics: 29
    #     l=0, rc=3.5469 Bohr: 4s-sz confined orbital
    #     l=0, rc=10.0469 Bohr: 5s-sz confined orbital
    #     l=1, rc=4.0781 Bohr: 4p-sz confined orbital
    #     l=1, rc=14.0938 Bohr: 5p-sz confined orbital
    #     l=2, rc=7.2031 Bohr: 4d-sz confined orbital
    #     l=0, rc=2.1250 Bohr: 4s-dz split-valence wave
    #     l=0, rc=6.1250 Bohr: 5s-dz split-valence wave
    #     l=1, rc=2.5469 Bohr: 4p-dz split-valence wave
    #     l=1, rc=8.7656 Bohr: 5p-dz split-valence wave
    #     l=2, rc=4.2344 Bohr: 4d-dz split-valence wave
    #     l=1, rc=10.0469 Bohr: p-type Gaussian polarization
    #   Number of RI-basis functions 0

  Se:
    name: Selenium
    id: 32bc71fdf0f79e2eec071fc2341e94af
    Z: 34.0
    valence: 6
    core: 28
    charge: 0.0
    file: /home/ubuntu/.pyenv/versions/cemea-env/lib/python3.10/site-packages/gpaw_data/setups/Se.LDA.gz
    compensation charges: {type: gauss,
                           rc: 0.27,
                           lmax: 2}
    cutoffs: {filter: 1.77,
              core: 2.67}
    projectors:
      #              energy  rcut
      - 4s(2.00)   -17.472   0.847
      - 4p(4.00)    -6.656   1.005
      -  s           9.739   0.847
      -  p          20.555   1.005
      -  d           0.000   0.847
  
    # LCAO basis set for Se:
    #   Name: dzp
    #   File: /home/ubuntu/.pyenv/versions/cemea-env/lib/python3.10/site-packages/gpaw_data/setups/Se.dzp.basis.gz
    #   Number of radial functions: 5
    #   Number of spherical harmonics: 13
    #     l=0, rc=5.7344 Bohr: 4s-sz confined orbital
    #     l=1, rc=7.2656 Bohr: 4p-sz confined orbital
    #     l=0, rc=3.1875 Bohr: 4s-dz split-valence wave
    #     l=1, rc=4.2188 Bohr: 4p-dz split-valence wave
    #     l=2, rc=7.2656 Bohr: d-type Gaussian polarization
    #   Number of RI-basis functions 0

  H:
    name: Hydrogen
    id: 4766778ce56282eaa64abeb28b7c1de3
    Z: 1.0
    valence: 1
    core: 0
    charge: 0.0
    file: /home/ubuntu/.pyenv/versions/cemea-env/lib/python3.10/site-packages/gpaw_data/setups/H.LDA.gz
    compensation charges: {type: gauss,
                           rc: 0.15,
                           lmax: 2}
    cutoffs: {filter: 0.85,
              core: 0.53}
    projectors:
      #              energy  rcut
      - 1s(1.00)    -6.353   0.476
      -  s          20.858   0.476
      -  p           0.000   0.476
  
    # LCAO basis set for H:
    #   Name: dzp
    #   File: /home/ubuntu/.pyenv/versions/cemea-env/lib/python3.10/site-packages/gpaw_data/setups/H.dzp.basis.gz
    #   Number of radial functions: 3
    #   Number of spherical harmonics: 5
    #     l=0, rc=6.4219 Bohr: 1s-sz confined orbital
    #     l=0, rc=3.6094 Bohr: 1s-dz split-valence wave
    #     l=1, rc=6.4219 Bohr: p-type Gaussian polarization
    #   Number of RI-basis functions 0

Reference energy: -2794642.239744  # eV

Spin-paired calculation

Convergence criteria:
 Maximum [total energy] change in last 3 cyles: 1e-05 eV / valence electron
 Maximum integral of absolute [dens]ity change: 0.0001 electrons / valence electron
 Maximum integral of absolute [eigenst]ate change: 1e-05 eV^2 / valence electron
 Maximum number of scf [iter]ations: 333
 (Square brackets indicate name in SCF output, whereas a 'c' in
 the SCF output indicates the quantity has converged.)

Symmetries present (total): 1

  ( 1  0  0)
  ( 0  1  0)
  ( 0  0  1)

16 k-points: 4 x 4 x 1 Monkhorst-Pack grid
8 k-points in the irreducible part of the Brillouin zone
       k-points in crystal coordinates                weights
   0:     0.12500000   -0.37500000    0.00000000          2/16
   1:     0.12500000   -0.12500000    0.00000000          2/16
   2:     0.12500000    0.12500000    0.00000000          2/16
   3:     0.12500000    0.37500000    0.00000000          2/16
   4:     0.37500000   -0.37500000    0.00000000          2/16
   5:     0.37500000   -0.12500000    0.00000000          2/16
   6:     0.37500000    0.12500000    0.00000000          2/16
   7:     0.37500000    0.37500000    0.00000000          2/16

Wave functions: LCAO
  Diagonalizer: Serial LAPACK
  Atomic Correction: dense with blas
  Data-type: complex
 

Occupation numbers: Fermi-Dirac:
  width: 0.1000  # eV
 

Eigensolver
   LCAO using direct dense diagonalizer 

Densities:
  Coarse grid: 160*28*96 grid
  Fine grid: 320*56*192 grid
  Total Charge: 0.000000 

Density mixing:
  Method: separate
  Backend: pulay
  Linear mixing parameter: 0.05
  old densities: 5
  Damping of long wavelength oscillations: 50 

Hamiltonian:
  XC and Coulomb potentials evaluated on a 320*56*192 grid
  Using the LDA Exchange-Correlation functional
  Interpolation: tri-quintic (5. degree polynomial)
  Poisson solver: FastPoissonSolver using
    Stencil: 8*3+1=25 point O(h^6) finite-difference Laplacian
    FFT axes: [np.int64(0), np.int64(1), np.int64(2)]
    FST axes: []
 

Memory estimate:
  Process memory now: 1600.46 MiB
  Calculator: 531.44 MiB
    Density: 214.73 MiB
      Arrays: 85.31 MiB
      Localized functions: 96.61 MiB
      Mixer: 32.81 MiB
    Hamiltonian: 62.44 MiB
      Arrays: 55.78 MiB
      XC: 0.00 MiB
      Poisson: 0.00 MiB
      vbar: 6.66 MiB
    Wavefunctions: 254.27 MiB
      C [qnM]: 14.29 MiB
      S, T [2 x qmm]: 98.75 MiB
      P [aqMi]: 2.50 MiB
      BasisFunctions: 138.73 MiB
      Eigensolver: 0.00 MiB

Total number of cores used: 1

Number of atoms: 36
Number of atomic orbitals: 636
Number of bands in calculation: 184
Number of valence electrons: 299
Bands to converge: occupied

... initialized

Initializing position-dependent things.

Density initialized from atomic densities
                                                                   
                                                                   
                                                                   
                                                                   
                                                                   
                                H                                  
          Se      Se      Se      Se      Se      Se               
            Se      Se      Se      Se      Se      Se             
                                                                   
                 Mo      Mo      Mo      Mo      Mo                
           MoSe    MoSe    MoSe    MoSe    MoSe    MoSe            
                                                                   
                Se      Se      Se      Se      Se      Se         
                                                                   
                                                                   
                                                                   
                                                                   

Atomic positions and initial magnetic moments

Positions:
   0 Mo     9.237604    0.000000    9.559400    ( 0.0000,  0.0000,  0.0000)
   1 Se     9.237604    1.898905   11.118800    ( 0.0000,  0.0000,  0.0000)
   2 Se    10.882104    0.949453    8.000000    ( 0.0000,  0.0000,  0.0000)
   3 Se     7.593104    4.747263   11.118800    ( 0.0000,  0.0000,  0.0000)
   4 Se     9.237604    3.797810    8.000000    ( 0.0000,  0.0000,  0.0000)
   5 Mo    12.526604    0.000000    9.559400    ( 0.0000,  0.0000,  0.0000)
   6 Se    12.526604    1.898905   11.118800    ( 0.0000,  0.0000,  0.0000)
   7 Se    14.171104    0.949453    8.000000    ( 0.0000,  0.0000,  0.0000)
   8 Mo    10.882104    2.848358    9.559400    ( 0.0000,  0.0000,  0.0000)
   9 Se    10.882104    4.747263   11.118800    ( 0.0000,  0.0000,  0.0000)
  10 Se    12.526604    3.797810    8.000000    ( 0.0000,  0.0000,  0.0000)
  11 Mo    15.815604    0.000000    9.559400    ( 0.0000,  0.0000,  0.0000)
  12 Se    15.815604    1.898905   11.118800    ( 0.0000,  0.0000,  0.0000)
  13 Se    17.460104    0.949453    8.000000    ( 0.0000,  0.0000,  0.0000)
  14 Mo    14.171104    2.848358    9.559400    ( 0.0000,  0.0000,  0.0000)
  15 Se    14.171104    4.747263   11.118800    ( 0.0000,  0.0000,  0.0000)
  16 Se    15.815604    3.797810    8.000000    ( 0.0000,  0.0000,  0.0000)
  17 Mo    19.104604    0.000000    9.559400    ( 0.0000,  0.0000,  0.0000)
  18 Se    19.104604    1.898905   11.118800    ( 0.0000,  0.0000,  0.0000)
  19 Se    20.749104    0.949453    8.000000    ( 0.0000,  0.0000,  0.0000)
  20 Mo    17.460104    2.848358    9.559400    ( 0.0000,  0.0000,  0.0000)
  21 Se    17.460104    4.747263   11.118800    ( 0.0000,  0.0000,  0.0000)
  22 Se    19.104604    3.797810    8.000000    ( 0.0000,  0.0000,  0.0000)
  23 Mo    22.393604    0.000000    9.559400    ( 0.0000,  0.0000,  0.0000)
  24 Se    22.393604    1.898905   11.118800    ( 0.0000,  0.0000,  0.0000)
  25 Se    24.038104    0.949453    8.000000    ( 0.0000,  0.0000,  0.0000)
  26 Mo    20.749104    2.848358    9.559400    ( 0.0000,  0.0000,  0.0000)
  27 Se    20.749104    4.747263   11.118800    ( 0.0000,  0.0000,  0.0000)
  28 Se    22.393604    3.797810    8.000000    ( 0.0000,  0.0000,  0.0000)
  29 Mo    25.682604    0.000000    9.559400    ( 0.0000,  0.0000,  0.0000)
  30 Se    25.682604    1.898905   11.118800    ( 0.0000,  0.0000,  0.0000)
  31 Se    27.327104    0.949453    8.000000    ( 0.0000,  0.0000,  0.0000)
  32 Mo    24.038104    2.848358    9.559400    ( 0.0000,  0.0000,  0.0000)
  33 Se    24.038104    4.747263   11.118800    ( 0.0000,  0.0000,  0.0000)
  34 Se    25.682604    3.797810    8.000000    ( 0.0000,  0.0000,  0.0000)
  35 H     17.460104    2.360068   12.618800    ( 0.0000,  0.0000,  0.0000)

Unit cell:
           periodic     x           y           z      points  spacing
  1. axis:    yes   37.112875    0.000000    0.000000   160     0.2009
  2. axis:    yes   -3.289000    5.696715    0.000000    28     0.2035
  3. axis:    yes    0.000000    0.000000   19.118800    96     0.1992

  Lengths:  37.112875   6.578000  19.118800
  Angles:   90.000000  90.000000 120.000000

Effective grid spacing dv^(1/3) = 0.2110

     iter     time        total  log10-change:
                         energy   eigst   dens
iter:   1 18:40:17  -242.219867        c
iter:   2 18:40:50  -237.073084        c -1.19
iter:   3 18:41:23  -234.927160        c -1.27
iter:   4 18:41:57  -233.272500        c -1.31
iter:   5 18:42:30  -232.746176        c -1.33
iter:   6 18:43:04  -231.148619        c -1.38
iter:   7 18:43:40  -230.469315        c -1.51
iter:   8 18:44:13  -230.193402        c -1.67
iter:   9 18:44:48  -230.142056        c -1.94
iter:  10 18:45:22  -230.111693        c -2.03
iter:  11 18:45:55  -230.074262        c -2.15
iter:  12 18:46:29  -230.009103        c -2.13
iter:  13 18:47:04  -229.983765        c -2.40
iter:  14 18:47:40  -229.990076        c -2.58
iter:  15 18:48:13  -229.984422        c -2.62
iter:  16 18:48:47  -229.981952        c -2.74
iter:  17 18:49:20  -229.982750c       c -2.82
iter:  18 18:49:54  -229.978375        c -2.86
iter:  19 18:50:28  -229.979421        c -3.00
iter:  20 18:51:24  -229.977459c       c -3.16
iter:  21 18:52:05  -229.979066c       c -3.22
iter:  22 18:52:39  -229.978650c       c -3.56
iter:  23 18:53:13  -229.978807c       c -3.68
iter:  24 18:53:47  -229.978994c       c -3.75
iter:  25 18:54:21  -229.978742c       c -3.84
iter:  26 18:54:55  -229.978925c       c -3.89
iter:  27 18:55:29  -229.978728c       c -3.93
iter:  28 18:56:02  -229.978950c       c -3.97
iter:  29 18:56:36  -229.978722c       c -4.15c

Converged after 29 iterations.

Dipole moment: (2.165420, -6.678496, -0.050767) |e|*Ang

Energy contributions relative to reference atoms: (reference = -2794642.239744)

Kinetic:       +321.347001
Potential:     -335.976945
External:        +0.000000
XC:            -217.024617
Entropy (-ST):   -0.676117
Local:           +2.013898
SIC:             +0.000000
--------------------------
Free energy:   -230.316781
Extrapolated:  -229.978722

Showing only first 2 kpts
 Kpt  Band  Eigenvalues  Occupancy
  0   147     -2.78033    1.67682
  0   148     -2.72504    1.49810
  0   149     -2.58451    0.84538
  0   150     -2.48378    0.42193

  1   147     -2.93606    1.92195
  1   148     -2.67628    1.29403
  1   149     -2.64304    1.13593
  1   150     -2.52828    0.58882


Fermi level: -2.61569

No gap
No difference between direct/indirect transitions
Timing:                              incl.     excl.
-----------------------------------------------------------
Basic WFS set positions:             0.001     0.001   0.0% |
Basis functions set positions:       0.174     0.174   0.0% |
LCAO WFS Initialize:                 1.353     0.282   0.0% |
 Hamiltonian:                        1.071     0.000   0.0% |
  Atomic:                            0.231     0.002   0.0% |
   XC Correction:                    0.229     0.229   0.0% |
  Calculate atomic Hamiltonians:     0.019     0.019   0.0% |
  Communicate:                       0.000     0.000   0.0% |
  Hartree integrate/restrict:        0.053     0.053   0.0% |
  Initialize Hamiltonian:            0.000     0.000   0.0% |
  Poisson:                           0.550     0.023   0.0% |
   Communicate from 1D:              0.080     0.080   0.0% |
   Communicate from 2D:              0.080     0.080   0.0% |
   Communicate to 1D:                0.100     0.100   0.0% |
   Communicate to 2D:                0.077     0.077   0.0% |
   FFT 1D:                           0.051     0.051   0.0% |
   FFT 2D:                           0.138     0.138   0.0% |
  XC 3D grid:                        0.182     0.182   0.0% |
  vbar:                              0.034     0.034   0.0% |
P tci:                               2.779     2.779   0.3% |
SCF-cycle:                         989.517     0.042   0.0% |
 Density:                          677.350     0.001   0.0% |
  Atomic density matrices:           0.373     0.373   0.0% |
  Mix:                               7.154     7.154   0.7% |
  Multipole moments:                 0.017     0.017   0.0% |
  Normalize:                         0.014     0.014   0.0% |
  Pseudo density:                  669.792     0.066   0.0% |
   Calculate density matrix:         3.814     3.814   0.4% |
   Construct density:              665.909   665.909  66.7% |--------------------------|
   Symmetrize density:               0.003     0.003   0.0% |
 Hamiltonian:                       27.374     0.003   0.0% |
  Atomic:                            6.512     0.065   0.0% |
   XC Correction:                    6.447     6.447   0.6% |
  Calculate atomic Hamiltonians:     0.527     0.527   0.1% |
  Communicate:                       0.000     0.000   0.0% |
  Hartree integrate/restrict:        1.539     1.539   0.2% |
  Poisson:                          13.268     0.440   0.0% |
   Communicate from 1D:              1.941     1.941   0.2% |
   Communicate from 2D:              1.994     1.994   0.2% |
   Communicate to 1D:                2.148     2.148   0.2% |
   Communicate to 2D:                1.910     1.910   0.2% |
   FFT 1D:                           1.259     1.259   0.1% |
   FFT 2D:                           3.576     3.576   0.4% |
  XC 3D grid:                        4.907     4.907   0.5% |
  vbar:                              0.617     0.617   0.1% |
 LCAO eigensolver:                 284.750     0.127   0.0% |
  Calculate projections:             6.463     6.463   0.6% |
  DenseAtomicCorrection:            51.566    51.566   5.2% |-|
  Distribute overlap matrix:         0.192     0.192   0.0% |
  Orbital Layouts:                  95.501    95.501   9.6% |---|
  Potential matrix:                127.000   127.000  12.7% |----|
  Sum over cells:                    3.903     3.903   0.4% |
ST tci:                              0.588     0.588   0.1% |
Set symmetry:                        0.001     0.001   0.0% |
TCI: Evaluate splines:               0.355     0.355   0.0% |
mktci:                               0.013     0.013   0.0% |
Other:                               3.455     3.455   0.3% |
-----------------------------------------------------------
Total:                                       998.235 100.0%

Memory usage: 1.56 GiB
Date: Thu Feb 12 18:56:36 2026
