
  ___ ___ ___ _ _ _  
 |   |   |_  | | | | 
 | | | | | . | | | | 
 |__ |  _|___|_____|  25.7.0
 |___|_|             

User:   mikei@Z790-AORUS-ELITE-AX
Date:   Fri Feb 20 08:41:35 2026
Arch:   x86_64
Pid:    89048
CWD:    /home/mikei/Dokumenty/code/cemea/ocx
Python: 3.10.16
gpaw:   /home/mikei/.pyenv/versions/cemea-env/lib/python3.10/site-packages/gpaw
_gpaw:  /home/mikei/.pyenv/versions/cemea-env/lib/python3.10/site-packages/
        _gpaw.cpython-310-x86_64-linux-gnu.so
ase:    /home/mikei/.pyenv/versions/cemea-env/lib/python3.10/site-packages/ase (version 3.27.0)
numpy:  /home/mikei/.pyenv/versions/cemea-env/lib/python3.10/site-packages/numpy (version 2.2.6)
scipy:  /home/mikei/.pyenv/versions/cemea-env/lib/python3.10/site-packages/scipy (version 1.15.3)
libxc:  2.x.y
units:  Angstrom and eV
cores: 1
OpenMP: False
OMP_NUM_THREADS: 1

Input parameters:
  basis: dzp
  convergence: {density: 0.0001,
                eigenstates: 1e-05,
                energy: 1e-05}
  kpts: [4 4 1]
  mode: lcao

System changes: positions, numbers, cell, pbc, initial_charges, initial_magmoms 

Initialize ...

species:
  Mo:
    name: Molybdenum
    id: ac24daaf086600a00ce6d19a74574df1
    Z: 42.0
    valence: 14
    core: 28
    charge: 0.0
    file: /home/mikei/.pyenv/versions/cemea-env/lib/python3.10/site-packages/gpaw_data/setups/Mo.LDA.gz
    compensation charges: {type: gauss,
                           rc: 0.38,
                           lmax: 2}
    cutoffs: {filter: 2.16,
              core: 1.42}
    projectors:
      #              energy  rcut
      - 4s(2.00)   -64.384   1.238
      - 5s(1.00)    -4.319   1.238
      - 4p(6.00)   -38.595   1.296
      - 5p(0.00)    -1.161   1.296
      - 4d(5.00)    -3.933   1.296
      -  d          23.278   1.296
  
    # LCAO basis set for Mo:
    #   Name: dzp
    #   File: /home/mikei/.pyenv/versions/cemea-env/lib/python3.10/site-packages/gpaw_data/setups/Mo.dzp.basis.gz
    #   Number of radial functions: 11
    #   Number of spherical harmonics: 29
    #     l=0, rc=3.5469 Bohr: 4s-sz confined orbital
    #     l=0, rc=10.0469 Bohr: 5s-sz confined orbital
    #     l=1, rc=4.0781 Bohr: 4p-sz confined orbital
    #     l=1, rc=14.0938 Bohr: 5p-sz confined orbital
    #     l=2, rc=7.2031 Bohr: 4d-sz confined orbital
    #     l=0, rc=2.1250 Bohr: 4s-dz split-valence wave
    #     l=0, rc=6.1250 Bohr: 5s-dz split-valence wave
    #     l=1, rc=2.5469 Bohr: 4p-dz split-valence wave
    #     l=1, rc=8.7656 Bohr: 5p-dz split-valence wave
    #     l=2, rc=4.2344 Bohr: 4d-dz split-valence wave
    #     l=1, rc=10.0469 Bohr: p-type Gaussian polarization
    #   Number of RI-basis functions 0

  Ag:
    name: Silver
    id: 5bcdc129af383d1b52b015d30ddad325
    Z: 47.0
    valence: 17
    core: 30
    charge: 0.0
    file: /home/mikei/.pyenv/versions/cemea-env/lib/python3.10/site-packages/gpaw_data/setups/Ag.LDA.gz
    compensation charges: {type: gauss,
                           rc: 0.40,
                           lmax: 2}
    cutoffs: {filter: 2.35,
              core: 2.19}
    projectors:
      #              energy  rcut
      - 5s(1.00)    -4.708   1.286
      - 4p(6.00)   -58.678   1.328
      - 5p(0.00)    -0.844   1.328
      - 4d(10.00)    -7.664   1.180
      -  s          22.503   1.286
      -  d          19.547   1.180
  
    # LCAO basis set for Ag:
    #   Name: dzp
    #   File: /home/mikei/.pyenv/versions/cemea-env/lib/python3.10/site-packages/gpaw_data/setups/Ag.dzp.basis.gz
    #   Number of radial functions: 9
    #   Number of spherical harmonics: 27
    #     l=0, rc=9.2812 Bohr: 5s-sz confined orbital
    #     l=1, rc=3.3750 Bohr: 4p-sz confined orbital
    #     l=1, rc=14.2344 Bohr: 5p-sz confined orbital
    #     l=2, rc=5.4531 Bohr: 4d-sz confined orbital
    #     l=0, rc=5.5156 Bohr: 5s-dz split-valence wave
    #     l=1, rc=2.3281 Bohr: 4p-dz split-valence wave
    #     l=1, rc=8.7656 Bohr: 5p-dz split-valence wave
    #     l=2, rc=3.2656 Bohr: 4d-dz split-valence wave
    #     l=1, rc=9.2812 Bohr: p-type Gaussian polarization
    #   Number of RI-basis functions 0

  C:
    name: Carbon
    id: d60576a1f549371a163e72552ca58787
    Z: 6.0
    valence: 4
    core: 2
    charge: 0.0
    file: /home/mikei/.pyenv/versions/cemea-env/lib/python3.10/site-packages/gpaw_data/setups/C.LDA.gz
    compensation charges: {type: gauss,
                           rc: 0.20,
                           lmax: 2}
    cutoffs: {filter: 1.14,
              core: 1.14}
    projectors:
      #              energy  rcut
      - 2s(2.00)   -13.639   0.635
      - 2p(2.00)    -5.414   0.635
      -  s          13.573   0.635
      -  p          21.797   0.635
      -  d           0.000   0.635
  
    # LCAO basis set for C:
    #   Name: dzp
    #   File: /home/mikei/.pyenv/versions/cemea-env/lib/python3.10/site-packages/gpaw_data/setups/C.dzp.basis.gz
    #   Number of radial functions: 5
    #   Number of spherical harmonics: 13
    #     l=0, rc=5.5469 Bohr: 2s-sz confined orbital
    #     l=1, rc=6.6719 Bohr: 2p-sz confined orbital
    #     l=0, rc=3.0312 Bohr: 2s-dz split-valence wave
    #     l=1, rc=3.7500 Bohr: 2p-dz split-valence wave
    #     l=2, rc=6.6719 Bohr: d-type Gaussian polarization
    #   Number of RI-basis functions 0

Reference energy: -918678.433668  # eV

Spin-paired calculation

Convergence criteria:
 Maximum [total energy] change in last 3 cyles: 1e-05 eV / valence electron
 Maximum integral of absolute [dens]ity change: 0.0001 electrons / valence electron
 Maximum integral of absolute [eigenst]ate change: 1e-05 eV^2 / valence electron
 Maximum number of scf [iter]ations: 333
 (Square brackets indicate name in SCF output, whereas a 'c' in
 the SCF output indicates the quantity has converged.)

Symmetries present (total): 2

  ( 1  0  0)  ( 0  1  0)
  ( 0  1  0)  ( 1  0  0)
  ( 0  0  1)  ( 0  0  1)

16 k-points: 4 x 4 x 1 Monkhorst-Pack grid
6 k-points in the irreducible part of the Brillouin zone
       k-points in crystal coordinates                weights
   0:     0.12500000   -0.12500000    0.00000000          2/16
   1:     0.12500000    0.12500000    0.00000000          2/16
   2:     0.37500000   -0.37500000    0.00000000          2/16
   3:     0.37500000   -0.12500000    0.00000000          4/16
   4:     0.37500000    0.12500000    0.00000000          4/16
   5:     0.37500000    0.37500000    0.00000000          2/16

Wave functions: LCAO
  Diagonalizer: Serial LAPACK
  Atomic Correction: dense with blas
  Data-type: complex
 

Occupation numbers: Fermi-Dirac:
  width: 0.1000  # eV
 

Eigensolver
   LCAO using direct dense diagonalizer 

Densities:
  Coarse grid: 40*40*92 grid
  Fine grid: 80*80*184 grid
  Total Charge: 0.000000 

Density mixing:
  Method: separate
  Backend: pulay
  Linear mixing parameter: 0.05
  old densities: 5
  Damping of long wavelength oscillations: 50 

Hamiltonian:
  XC and Coulomb potentials evaluated on a 80*80*184 grid
  Using the LDA Exchange-Correlation functional
  Interpolation: tri-quintic (5. degree polynomial)
  Poisson solver: FastPoissonSolver using
    Stencil: 6*3+1=19 point O(h^6) finite-difference Laplacian
    FFT axes: [np.int64(0), np.int64(1), np.int64(2)]
    FST axes: []
 

Memory estimate:
  Process memory now: 1247.07 MiB
  Calculator: 204.10 MiB
    Density: 81.72 MiB
      Arrays: 29.20 MiB
      Localized functions: 41.29 MiB
      Mixer: 11.23 MiB
    Hamiltonian: 21.83 MiB
      Arrays: 19.09 MiB
      XC: 0.00 MiB
      Poisson: 0.00 MiB
      vbar: 2.74 MiB
    Wavefunctions: 100.55 MiB
      C [qnM]: 2.14 MiB
      S, T [2 x qmm]: 14.56 MiB
      P [aqMi]: 0.32 MiB
      BasisFunctions: 83.53 MiB
      Eigensolver: 0.00 MiB

Total number of cores used: 1

Number of atoms: 12
Number of atomic orbitals: 282
Number of bands in calculation: 83
Number of valence electrons: 131
Bands to converge: occupied

... initialized

Initializing position-dependent things.

Density initialized from atomic densities
      .-------------------.  
     /|                   |  
    / |                   |  
   /  |                   |  
  /   |                   |  
 *    |                   |  
 |    |                   |  
 |    |                   |  
 |    |                   |  
 |    |                   |  
 |    |                   |  
 |    |   Mo        Mo    |  
 |    |                   |  
 |    |Ag        Mo       |  
 |    |   C         C     |  
 |  Mo|       Mo          |  
 |    |C         C        |  
 Mo   |    Mo             |  
 |    |                   |  
 |    |                   |  
 |    |                   |  
 |    |                   |  
 |    .-------------------.  
 |   /                   /   
 |  /                   /    
 | /                   /     
 |/                   /      
 *-------------------*       

Atomic positions and initial magnetic moments

Positions:
   0 Mo     0.000000    0.000000    8.000000    ( 0.0000,  0.0000,  0.0000)
   1 Ag     2.060000    2.060000   10.060000    ( 0.0000,  0.0000,  0.0000)
   2 C      2.060000    2.060000    8.000000    ( 0.0000,  0.0000,  0.0000)
   3 Mo     0.000000    4.120000    8.000000    ( 0.0000,  0.0000,  0.0000)
   4 Mo     2.060000    6.180000   10.060000    ( 0.0000,  0.0000,  0.0000)
   5 C      2.060000    6.180000    8.000000    ( 0.0000,  0.0000,  0.0000)
   6 Mo     4.120000    0.000000    8.000000    ( 0.0000,  0.0000,  0.0000)
   7 Mo     6.180000    2.060000   10.060000    ( 0.0000,  0.0000,  0.0000)
   8 C      6.180000    2.060000    8.000000    ( 0.0000,  0.0000,  0.0000)
   9 Mo     4.120000    4.120000    8.000000    ( 0.0000,  0.0000,  0.0000)
  10 Mo     6.180000    6.180000   10.060000    ( 0.0000,  0.0000,  0.0000)
  11 C      6.180000    6.180000    8.000000    ( 0.0000,  0.0000,  0.0000)

Unit cell:
           periodic     x           y           z      points  spacing
  1. axis:    yes    8.240000    0.000000    0.000000    40     0.2060
  2. axis:    yes    0.000000    8.240000    0.000000    40     0.2060
  3. axis:    yes    0.000000    0.000000   18.060000    92     0.1963

  Lengths:   8.240000   8.240000  18.060000
  Angles:   90.000000  90.000000  90.000000

Effective grid spacing dv^(1/3) = 0.2027

     iter     time        total  log10-change:
                         energy   eigst   dens
iter:   1 08:41:41   -89.649619        c
iter:   2 08:41:49   -82.207026        c -0.86
iter:   3 08:42:01   -77.998022        c -0.99
iter:   4 08:42:11   -74.806864        c -1.07
iter:   5 08:42:19   -73.468227        c -1.22
iter:   6 08:42:28   -72.423985        c -1.33
iter:   7 08:42:42   -72.260794        c -1.60
iter:   8 08:42:52   -72.194057        c -1.77
iter:   9 08:43:02   -72.176066        c -1.86
iter:  10 08:43:11   -72.153436        c -2.02
iter:  11 08:43:19   -72.102310        c -2.05
iter:  12 08:43:27   -72.096130        c -2.33
iter:  13 08:43:37   -72.092466        c -2.43
iter:  14 08:43:45   -72.089894        c -2.51
iter:  15 08:43:55   -72.088191        c -2.62
iter:  16 08:44:04   -72.087810        c -2.76
iter:  17 08:44:11   -72.087300c       c -2.90
iter:  18 08:44:18   -72.087092c       c -2.98
iter:  19 08:44:26   -72.086830c       c -3.07
iter:  20 08:44:32   -72.086901c       c -3.18
iter:  21 08:44:45   -72.086986c       c -3.32
iter:  22 08:44:52   -72.086785c       c -3.49
iter:  23 08:45:01   -72.086910c       c -3.55
iter:  24 08:45:08   -72.086858c       c -3.66
iter:  25 08:45:17   -72.086865c       c -3.83
iter:  26 08:45:29   -72.086890c       c -3.90
iter:  27 08:45:39   -72.086877c       c -3.99
iter:  28 08:45:48   -72.086877c       c -4.12c

Converged after 28 iterations.

Dipole moment: (-5.352513, -5.352513, 0.585731) |e|*Ang

Energy contributions relative to reference atoms: (reference = -918678.433668)

Kinetic:       -198.308017
Potential:     +137.141378
External:        +0.000000
XC:             -11.367606
Entropy (-ST):   -1.068453
Local:           +0.981595
SIC:             +0.000000
--------------------------
Free energy:    -72.621103
Extrapolated:   -72.086877

Showing only first 2 kpts
 Kpt  Band  Eigenvalues  Occupancy
  0    63     -2.23729    1.37623
  0    64     -2.16353    1.02685
  0    65     -2.14172    0.91796
  0    66     -2.08691    0.65808

  1    63     -2.23729    1.37623
  1    64     -2.16353    1.02685
  1    65     -2.14172    0.91796
  1    66     -2.08691    0.65808


Fermi level: -2.15816

No gap
No difference between direct/indirect transitions
Timing:                              incl.     excl.
-----------------------------------------------------------
Basic WFS set positions:             0.000     0.000   0.0% |
Basis functions set positions:       0.064     0.064   0.0% |
LCAO WFS Initialize:                 0.214     0.032   0.0% |
 Hamiltonian:                        0.182     0.000   0.0% |
  Atomic:                            0.054     0.001   0.0% |
   XC Correction:                    0.053     0.053   0.0% |
  Calculate atomic Hamiltonians:     0.005     0.005   0.0% |
  Communicate:                       0.000     0.000   0.0% |
  Hartree integrate/restrict:        0.006     0.006   0.0% |
  Initialize Hamiltonian:            0.000     0.000   0.0% |
  Poisson:                           0.073     0.006   0.0% |
   Communicate from 1D:              0.007     0.007   0.0% |
   Communicate from 2D:              0.007     0.007   0.0% |
   Communicate to 1D:                0.010     0.010   0.0% |
   Communicate to 2D:                0.011     0.011   0.0% |
   FFT 1D:                           0.012     0.012   0.0% |
   FFT 2D:                           0.020     0.020   0.0% |
  XC 3D grid:                        0.041     0.041   0.0% |
  vbar:                              0.002     0.002   0.0% |
P tci:                               0.185     0.185   0.1% |
SCF-cycle:                         252.059     0.039   0.0% |
 Density:                          127.326     0.000   0.0% |
  Atomic density matrices:           0.030     0.030   0.0% |
  Mix:                               2.488     2.488   1.0% |
  Multipole moments:                 0.002     0.002   0.0% |
  Normalize:                         0.002     0.002   0.0% |
  Pseudo density:                  124.804     0.008   0.0% |
   Calculate density matrix:         0.547     0.547   0.2% |
   Construct density:              124.157   124.157  49.0% |-------------------|
   Symmetrize density:               0.092     0.092   0.0% |
 Hamiltonian:                        6.107     0.001   0.0% |
  Atomic:                            1.538     0.020   0.0% |
   XC Correction:                    1.518     1.518   0.6% |
  Calculate atomic Hamiltonians:     0.145     0.145   0.1% |
  Communicate:                       0.000     0.000   0.0% |
  Hartree integrate/restrict:        0.159     0.159   0.1% |
  Poisson:                           1.903     0.150   0.1% |
   Communicate from 1D:              0.215     0.215   0.1% |
   Communicate from 2D:              0.184     0.184   0.1% |
   Communicate to 1D:                0.175     0.175   0.1% |
   Communicate to 2D:                0.253     0.253   0.1% |
   FFT 1D:                           0.308     0.308   0.1% |
   FFT 2D:                           0.618     0.618   0.2% |
  XC 3D grid:                        2.061     2.061   0.8% |
  vbar:                              0.299     0.299   0.1% |
 LCAO eigensolver:                 118.587     0.030   0.0% |
  Calculate projections:             9.449     9.449   3.7% ||
  DenseAtomicCorrection:             7.954     7.954   3.1% ||
  Distribute overlap matrix:         0.025     0.025   0.0% |
  Orbital Layouts:                  78.458    78.458  30.9% |-----------|
  Potential matrix:                 21.300    21.300   8.4% |--|
  Sum over cells:                    1.372     1.372   0.5% |
ST tci:                              0.122     0.122   0.0% |
Set symmetry:                        0.000     0.000   0.0% |
TCI: Evaluate splines:               0.321     0.321   0.1% |
mktci:                               0.004     0.004   0.0% |
Other:                               0.546     0.546   0.2% |
-----------------------------------------------------------
Total:                                       253.517 100.0%

Memory usage: 1.22 GiB
Date: Fri Feb 20 08:45:48 2026
