
  ___ ___ ___ _ _ _  
 |   |   |_  | | | | 
 | | | | | . | | | | 
 |__ |  _|___|_____|  25.7.0
 |___|_|             

User:   ubuntu@third-test
Date:   Thu Feb 19 08:03:54 2026
Arch:   x86_64
Pid:    2718679
CWD:    /mnt/vdd1/work/cemea/fairchem/src/fairchem/applications/ocx/mo_h_adsorption_workflow
Python: 3.10.16
gpaw:   /home/ubuntu/.pyenv/versions/cemea-env/lib/python3.10/site-packages/gpaw
_gpaw:  /home/ubuntu/.pyenv/versions/cemea-env/lib/python3.10/site-packages/
        _gpaw.cpython-310-x86_64-linux-gnu.so
ase:    /home/ubuntu/.pyenv/versions/cemea-env/lib/python3.10/site-packages/ase (version 3.27.0)
numpy:  /home/ubuntu/.pyenv/versions/cemea-env/lib/python3.10/site-packages/numpy (version 2.2.6)
scipy:  /home/ubuntu/.pyenv/versions/cemea-env/lib/python3.10/site-packages/scipy (version 1.15.3)
libxc:  2.x.y
units:  Angstrom and eV
cores: 1
OpenMP: False
OMP_NUM_THREADS: 1

Input parameters:
  basis: dzp
  convergence: {density: 0.0001,
                eigenstates: 1e-05,
                energy: 1e-05}
  kpts: [4 4 1]
  mode: lcao

System changes: positions, numbers, cell, pbc, initial_charges, initial_magmoms 

Initialize ...

species:
  Mo:
    name: Molybdenum
    id: ac24daaf086600a00ce6d19a74574df1
    Z: 42.0
    valence: 14
    core: 28
    charge: 0.0
    file: /home/ubuntu/.pyenv/versions/cemea-env/lib/python3.10/site-packages/gpaw_data/setups/Mo.LDA.gz
    compensation charges: {type: gauss,
                           rc: 0.38,
                           lmax: 2}
    cutoffs: {filter: 2.16,
              core: 1.42}
    projectors:
      #              energy  rcut
      - 4s(2.00)   -64.384   1.238
      - 5s(1.00)    -4.319   1.238
      - 4p(6.00)   -38.595   1.296
      - 5p(0.00)    -1.161   1.296
      - 4d(5.00)    -3.933   1.296
      -  d          23.278   1.296
  
    # LCAO basis set for Mo:
    #   Name: dzp
    #   File: /home/ubuntu/.pyenv/versions/cemea-env/lib/python3.10/site-packages/gpaw_data/setups/Mo.dzp.basis.gz
    #   Number of radial functions: 11
    #   Number of spherical harmonics: 29
    #     l=0, rc=3.5469 Bohr: 4s-sz confined orbital
    #     l=0, rc=10.0469 Bohr: 5s-sz confined orbital
    #     l=1, rc=4.0781 Bohr: 4p-sz confined orbital
    #     l=1, rc=14.0938 Bohr: 5p-sz confined orbital
    #     l=2, rc=7.2031 Bohr: 4d-sz confined orbital
    #     l=0, rc=2.1250 Bohr: 4s-dz split-valence wave
    #     l=0, rc=6.1250 Bohr: 5s-dz split-valence wave
    #     l=1, rc=2.5469 Bohr: 4p-dz split-valence wave
    #     l=1, rc=8.7656 Bohr: 5p-dz split-valence wave
    #     l=2, rc=4.2344 Bohr: 4d-dz split-valence wave
    #     l=1, rc=10.0469 Bohr: p-type Gaussian polarization
    #   Number of RI-basis functions 0

  S:
    name: Sulfur
    id: a5eb49d7597a2879c13719b04c71318f
    Z: 16.0
    valence: 6
    core: 10
    charge: 0.0
    file: /home/ubuntu/.pyenv/versions/cemea-env/lib/python3.10/site-packages/gpaw_data/setups/S.LDA.gz
    compensation charges: {type: gauss,
                           rc: 0.24,
                           lmax: 2}
    cutoffs: {filter: 1.77,
              core: 1.66}
    projectors:
      #              energy  rcut
      - 3s(2.00)   -17.278   0.974
      - 3p(4.00)    -7.106   0.979
      -  s           9.933   0.974
      -  p          20.105   0.979
      -  d           0.000   0.900
  
    # LCAO basis set for S:
    #   Name: dzp
    #   File: /home/ubuntu/.pyenv/versions/cemea-env/lib/python3.10/site-packages/gpaw_data/setups/S.dzp.basis.gz
    #   Number of radial functions: 5
    #   Number of spherical harmonics: 13
    #     l=0, rc=5.5156 Bohr: 3s-sz confined orbital
    #     l=1, rc=6.9375 Bohr: 3p-sz confined orbital
    #     l=0, rc=3.0469 Bohr: 3s-dz split-valence wave
    #     l=1, rc=3.9375 Bohr: 3p-dz split-valence wave
    #     l=2, rc=6.9375 Bohr: d-type Gaussian polarization
    #   Number of RI-basis functions 0

Reference energy: -1558378.603206  # eV

Spin-paired calculation

Convergence criteria:
 Maximum [total energy] change in last 3 cyles: 1e-05 eV / valence electron
 Maximum integral of absolute [dens]ity change: 0.0001 electrons / valence electron
 Maximum integral of absolute [eigenst]ate change: 1e-05 eV^2 / valence electron
 Maximum number of scf [iter]ations: 333
 (Square brackets indicate name in SCF output, whereas a 'c' in
 the SCF output indicates the quantity has converged.)

Symmetries present (total): 1

  ( 1  0  0)
  ( 0  1  0)
  ( 0  0  1)

16 k-points: 4 x 4 x 1 Monkhorst-Pack grid
8 k-points in the irreducible part of the Brillouin zone
       k-points in crystal coordinates                weights
   0:     0.12500000   -0.37500000    0.00000000          2/16
   1:     0.12500000   -0.12500000    0.00000000          2/16
   2:     0.12500000    0.12500000    0.00000000          2/16
   3:     0.12500000    0.37500000    0.00000000          2/16
   4:     0.37500000   -0.37500000    0.00000000          2/16
   5:     0.37500000   -0.12500000    0.00000000          2/16
   6:     0.37500000    0.12500000    0.00000000          2/16
   7:     0.37500000    0.37500000    0.00000000          2/16

Wave functions: LCAO
  Diagonalizer: Serial LAPACK
  Atomic Correction: dense with blas
  Data-type: complex
 

Occupation numbers: Fermi-Dirac:
  width: 0.1000  # eV
 

Eigensolver
   LCAO using direct dense diagonalizer 

Densities:
  Coarse grid: 156*28*96 grid
  Fine grid: 312*56*192 grid
  Total Charge: 0.000000 

Density mixing:
  Method: separate
  Backend: pulay
  Linear mixing parameter: 0.05
  old densities: 5
  Damping of long wavelength oscillations: 50 

Hamiltonian:
  XC and Coulomb potentials evaluated on a 312*56*192 grid
  Using the LDA Exchange-Correlation functional
  Interpolation: tri-quintic (5. degree polynomial)
  Poisson solver: FastPoissonSolver using
    Stencil: 8*3+1=25 point O(h^6) finite-difference Laplacian
    FFT axes: [np.int64(0), np.int64(1), np.int64(2)]
    FST axes: []
 

Memory estimate:
  Process memory now: 1856.31 MiB
  Calculator: 531.77 MiB
    Density: 211.36 MiB
      Arrays: 83.18 MiB
      Localized functions: 96.19 MiB
      Mixer: 31.99 MiB
    Hamiltonian: 61.29 MiB
      Arrays: 54.39 MiB
      XC: 0.00 MiB
      Poisson: 0.00 MiB
      vbar: 6.91 MiB
    Wavefunctions: 259.11 MiB
      C [qnM]: 14.24 MiB
      S, T [2 x qmm]: 98.13 MiB
      P [aqMi]: 2.43 MiB
      BasisFunctions: 144.31 MiB
      Eigensolver: 0.00 MiB

Total number of cores used: 1

Number of atoms: 34
Number of atomic orbitals: 634
Number of bands in calculation: 184
Number of valence electrons: 300
Bands to converge: occupied

... initialized

Initializing position-dependent things.

Density initialized from atomic densities
                                                              
                                                              
                                                              
                                                              
                  S      S       S       S       S            
            S       S       S       S      S       S          
                                                              
         Mo      Mo     Mo      Mo      Mo      Mo            
           MoS     MoS     MoS     MoS    Mo S    MoS         
                                                              
               S       S       S       S       S              
                                                              
                                                              
                                                              
                                                              

Atomic positions and initial magnetic moments

Positions:
   0 Mo     9.237604    0.000000    9.475400    ( 0.0000,  0.0000,  0.0000)
   1 S      9.237604    1.824427   10.950800    ( 0.0000,  0.0000,  0.0000)
   2 S     10.817604    0.912213    8.000000    ( 0.0000,  0.0000,  0.0000)
   3 Mo     7.657604    2.736640    9.475400    ( 0.0000,  0.0000,  0.0000)
   4 S      9.237604    3.648854    8.000000    ( 0.0000,  0.0000,  0.0000)
   5 Mo    12.397604    0.000000    9.475400    ( 0.0000,  0.0000,  0.0000)
   6 S     12.397604    1.824427   10.950800    ( 0.0000,  0.0000,  0.0000)
   7 S     13.977604    0.912213    8.000000    ( 0.0000,  0.0000,  0.0000)
   8 Mo    10.817604    2.736640    9.475400    ( 0.0000,  0.0000,  0.0000)
   9 S     10.817604    4.561067   10.950800    ( 0.0000,  0.0000,  0.0000)
  10 S     12.397604    3.648854    8.000000    ( 0.0000,  0.0000,  0.0000)
  11 Mo    15.557604    0.000000    9.475400    ( 0.0000,  0.0000,  0.0000)
  12 S     15.557604    1.824427   10.950800    ( 0.0000,  0.0000,  0.0000)
  13 S     17.137604    0.912213    8.000000    ( 0.0000,  0.0000,  0.0000)
  14 Mo    13.977604    2.736640    9.475400    ( 0.0000,  0.0000,  0.0000)
  15 S     13.977604    4.561067   10.950800    ( 0.0000,  0.0000,  0.0000)
  16 S     15.557604    3.648854    8.000000    ( 0.0000,  0.0000,  0.0000)
  17 Mo    18.717604    0.000000    9.475400    ( 0.0000,  0.0000,  0.0000)
  18 S     18.717604    1.824427   10.950800    ( 0.0000,  0.0000,  0.0000)
  19 S     20.297604    0.912213    8.000000    ( 0.0000,  0.0000,  0.0000)
  20 Mo    17.137604    2.736640    9.475400    ( 0.0000,  0.0000,  0.0000)
  21 S     17.137604    4.561067   10.950800    ( 0.0000,  0.0000,  0.0000)
  22 S     18.717604    3.648854    8.000000    ( 0.0000,  0.0000,  0.0000)
  23 Mo    21.877604    0.000000    9.475400    ( 0.0000,  0.0000,  0.0000)
  24 S     21.877604    1.824427   10.950800    ( 0.0000,  0.0000,  0.0000)
  25 S     23.457604    0.912213    8.000000    ( 0.0000,  0.0000,  0.0000)
  26 Mo    20.297604    2.736640    9.475400    ( 0.0000,  0.0000,  0.0000)
  27 S     20.297604    4.561067   10.950800    ( 0.0000,  0.0000,  0.0000)
  28 S     21.877604    3.648854    8.000000    ( 0.0000,  0.0000,  0.0000)
  29 Mo    25.037604    0.000000    9.475400    ( 0.0000,  0.0000,  0.0000)
  30 S     25.037604    1.824427   10.950800    ( 0.0000,  0.0000,  0.0000)
  31 Mo    23.457604    2.736640    9.475400    ( 0.0000,  0.0000,  0.0000)
  32 S     23.457604    4.561067   10.950800    ( 0.0000,  0.0000,  0.0000)
  33 S     25.037604    3.648854    8.000000    ( 0.0000,  0.0000,  0.0000)

Unit cell:
           periodic     x           y           z      points  spacing
  1. axis:    yes   36.381875    0.000000    0.000000   156     0.2020
  2. axis:    yes   -3.160000    5.473281    0.000000    28     0.1955
  3. axis:    yes    0.000000    0.000000   18.950800    96     0.1974

  Lengths:  36.381875   6.320000  18.950800
  Angles:   90.000000  90.000000 120.000000

Effective grid spacing dv^(1/3) = 0.2080

     iter     time        total  log10-change:
                         energy   eigst   dens
iter:   1 08:10:01  -263.593665        c
iter:   2 08:16:09  -267.780260        c -1.15
iter:   3 08:22:05  -254.155294        c -1.12
iter:   4 08:28:29  -250.423799        c -1.25
iter:   5 08:34:29  -249.015286        c -1.31
iter:   6 08:40:32  -247.899487        c -1.35
iter:   7 08:46:41  -246.571948        c -1.43
iter:   8 08:52:30  -246.401089        c -1.55
iter:   9 08:59:01  -247.204365        c -1.62
iter:  10 09:05:13  -245.960102        c -1.55
iter:  11 09:11:33  -245.878117        c -1.88
iter:  12 09:17:49  -245.678303        c -1.95
iter:  13 09:24:09  -245.647858        c -2.14
iter:  14 09:30:21  -245.616788        c -2.24
iter:  15 09:36:36  -245.609910        c -2.40
iter:  16 09:42:54  -245.617854        c -2.53
iter:  17 09:49:08  -245.603986        c -2.50
iter:  18 09:55:31  -245.601343        c -2.74
iter:  19 10:01:50  -245.598107        c -2.83
iter:  20 10:08:06  -245.597485        c -3.07
iter:  21 10:14:26  -245.596844c       c -3.34
iter:  22 10:21:01  -245.597013c       c -3.43
iter:  23 10:27:33  -245.596741c       c -3.60
iter:  24 10:33:29  -245.596897c       c -3.68
iter:  25 10:39:53  -245.596885c       c -3.80
iter:  26 10:46:04  -245.596859c       c -3.91
iter:  27 10:52:21  -245.596905c       c -4.05c

Converged after 27 iterations.

Dipole moment: (2.400622, -7.320051, 0.040104) |e|*Ang

Energy contributions relative to reference atoms: (reference = -1558378.603206)

Kinetic:       +218.937448
Potential:     -250.830239
External:        +0.000000
XC:            -214.219552
Entropy (-ST):   -0.699463
Local:           +0.865169
SIC:             +0.000000
--------------------------
Free energy:   -245.946636
Extrapolated:  -245.596905

Showing only first 2 kpts
 Kpt  Band  Eigenvalues  Occupancy
  0   148     -3.13005    1.46510
  0   149     -3.11221    1.39235
  0   150     -3.00321    0.87030
  0   151     -2.86346    0.31998

  1   148     -3.19653    1.68378
  1   149     -3.04533    1.08001
  1   150     -2.97101    0.71655
  1   151     -2.91416    0.48049


Fermi level: -3.02929

Gap: 0.042 eV
Transition (v -> c):
  (s=0, k=1, n=149, [0.12, -0.12, 0.00]) -> (s=0, k=0, n=150, [0.12, -0.38, 0.00])
Direct/indirect transitions are different
Direct gap: 0.074 eV
Transition at: (s=0, k=1, n=149, [0.12, -0.12, 0.00])
Timing:                              incl.     excl.
-----------------------------------------------------------
Basic WFS set positions:             0.001     0.001   0.0% |
Basis functions set positions:       0.164     0.164   0.0% |
LCAO WFS Initialize:                 1.253     0.206   0.0% |
 Hamiltonian:                        1.047     0.000   0.0% |
  Atomic:                            0.198     0.002   0.0% |
   XC Correction:                    0.196     0.196   0.0% |
  Calculate atomic Hamiltonians:     0.021     0.021   0.0% |
  Communicate:                       0.000     0.000   0.0% |
  Hartree integrate/restrict:        0.075     0.075   0.0% |
  Initialize Hamiltonian:            0.000     0.000   0.0% |
  Poisson:                           0.516     0.020   0.0% |
   Communicate from 1D:              0.071     0.071   0.0% |
   Communicate from 2D:              0.078     0.078   0.0% |
   Communicate to 1D:                0.084     0.084   0.0% |
   Communicate to 2D:                0.070     0.070   0.0% |
   FFT 1D:                           0.053     0.053   0.0% |
   FFT 2D:                           0.141     0.141   0.0% |
  XC 3D grid:                        0.178     0.178   0.0% |
  vbar:                              0.059     0.059   0.0% |
P tci:                               2.877     2.877   0.0% |
SCF-cycle:                       10092.962     0.047   0.0% |
 Density:                          699.243     0.001   0.0% |
  Atomic density matrices:           0.382     0.382   0.0% |
  Mix:                              10.697    10.697   0.1% |
  Multipole moments:                 0.014     0.014   0.0% |
  Normalize:                         0.016     0.016   0.0% |
  Pseudo density:                  688.132     0.052   0.0% |
   Calculate density matrix:         7.800     7.800   0.1% |
   Construct density:              680.278   680.278   6.7% |--|
   Symmetrize density:               0.002     0.002   0.0% |
 Hamiltonian:                       25.570     0.003   0.0% |
  Atomic:                            5.217     0.059   0.0% |
   XC Correction:                    5.158     5.158   0.1% |
  Calculate atomic Hamiltonians:     0.580     0.580   0.0% |
  Communicate:                       0.000     0.000   0.0% |
  Hartree integrate/restrict:        1.891     1.891   0.0% |
  Poisson:                          12.574     0.445   0.0% |
   Communicate from 1D:              1.855     1.855   0.0% |
   Communicate from 2D:              1.864     1.864   0.0% |
   Communicate to 1D:                1.780     1.780   0.0% |
   Communicate to 2D:                1.880     1.880   0.0% |
   FFT 1D:                           1.215     1.215   0.0% |
   FFT 2D:                           3.535     3.535   0.0% |
  XC 3D grid:                        4.546     4.546   0.0% |
  vbar:                              0.759     0.759   0.0% |
 LCAO eigensolver:                9368.103     0.296   0.0% |
  Calculate projections:            20.527    20.527   0.2% |
  DenseAtomicCorrection:           218.454   218.454   2.2% ||
  Distribute overlap matrix:         0.166     0.166   0.0% |
  Orbital Layouts:                8992.188  8992.188  89.0% |-----------------------------------|
  Potential matrix:                129.603   129.603   1.3% ||
  Sum over cells:                    6.870     6.870   0.1% |
ST tci:                              0.658     0.658   0.0% |
Set symmetry:                        0.001     0.001   0.0% |
TCI: Evaluate splines:               0.269     0.269   0.0% |
mktci:                               0.011     0.011   0.0% |
Other:                               8.941     8.941   0.1% |
-----------------------------------------------------------
Total:                                     10107.136 100.0%

Memory usage: 1.81 GiB
Date: Thu Feb 19 10:52:21 2026
