
  ___ ___ ___ _ _ _  
 |   |   |_  | | | | 
 | | | | | . | | | | 
 |__ |  _|___|_____|  25.7.0
 |___|_|             

User:   ubuntu@third-test
Date:   Thu Feb 19 10:52:21 2026
Arch:   x86_64
Pid:    2718679
CWD:    /mnt/vdd1/work/cemea/fairchem/src/fairchem/applications/ocx/mo_h_adsorption_workflow
Python: 3.10.16
gpaw:   /home/ubuntu/.pyenv/versions/cemea-env/lib/python3.10/site-packages/gpaw
_gpaw:  /home/ubuntu/.pyenv/versions/cemea-env/lib/python3.10/site-packages/
        _gpaw.cpython-310-x86_64-linux-gnu.so
ase:    /home/ubuntu/.pyenv/versions/cemea-env/lib/python3.10/site-packages/ase (version 3.27.0)
numpy:  /home/ubuntu/.pyenv/versions/cemea-env/lib/python3.10/site-packages/numpy (version 2.2.6)
scipy:  /home/ubuntu/.pyenv/versions/cemea-env/lib/python3.10/site-packages/scipy (version 1.15.3)
libxc:  2.x.y
units:  Angstrom and eV
cores: 1
OpenMP: False
OMP_NUM_THREADS: 1

Input parameters:
  basis: dzp
  convergence: {density: 0.0001,
                eigenstates: 1e-05,
                energy: 1e-05}
  kpts: [4 4 1]
  mode: lcao

System changes: positions, numbers, cell, pbc, initial_charges, initial_magmoms 

Initialize ...

species:
  Mo:
    name: Molybdenum
    id: ac24daaf086600a00ce6d19a74574df1
    Z: 42.0
    valence: 14
    core: 28
    charge: 0.0
    file: /home/ubuntu/.pyenv/versions/cemea-env/lib/python3.10/site-packages/gpaw_data/setups/Mo.LDA.gz
    compensation charges: {type: gauss,
                           rc: 0.38,
                           lmax: 2}
    cutoffs: {filter: 2.16,
              core: 1.42}
    projectors:
      #              energy  rcut
      - 4s(2.00)   -64.384   1.238
      - 5s(1.00)    -4.319   1.238
      - 4p(6.00)   -38.595   1.296
      - 5p(0.00)    -1.161   1.296
      - 4d(5.00)    -3.933   1.296
      -  d          23.278   1.296
  
    # LCAO basis set for Mo:
    #   Name: dzp
    #   File: /home/ubuntu/.pyenv/versions/cemea-env/lib/python3.10/site-packages/gpaw_data/setups/Mo.dzp.basis.gz
    #   Number of radial functions: 11
    #   Number of spherical harmonics: 29
    #     l=0, rc=3.5469 Bohr: 4s-sz confined orbital
    #     l=0, rc=10.0469 Bohr: 5s-sz confined orbital
    #     l=1, rc=4.0781 Bohr: 4p-sz confined orbital
    #     l=1, rc=14.0938 Bohr: 5p-sz confined orbital
    #     l=2, rc=7.2031 Bohr: 4d-sz confined orbital
    #     l=0, rc=2.1250 Bohr: 4s-dz split-valence wave
    #     l=0, rc=6.1250 Bohr: 5s-dz split-valence wave
    #     l=1, rc=2.5469 Bohr: 4p-dz split-valence wave
    #     l=1, rc=8.7656 Bohr: 5p-dz split-valence wave
    #     l=2, rc=4.2344 Bohr: 4d-dz split-valence wave
    #     l=1, rc=10.0469 Bohr: p-type Gaussian polarization
    #   Number of RI-basis functions 0

  S:
    name: Sulfur
    id: a5eb49d7597a2879c13719b04c71318f
    Z: 16.0
    valence: 6
    core: 10
    charge: 0.0
    file: /home/ubuntu/.pyenv/versions/cemea-env/lib/python3.10/site-packages/gpaw_data/setups/S.LDA.gz
    compensation charges: {type: gauss,
                           rc: 0.24,
                           lmax: 2}
    cutoffs: {filter: 1.77,
              core: 1.66}
    projectors:
      #              energy  rcut
      - 3s(2.00)   -17.278   0.974
      - 3p(4.00)    -7.106   0.979
      -  s           9.933   0.974
      -  p          20.105   0.979
      -  d           0.000   0.900
  
    # LCAO basis set for S:
    #   Name: dzp
    #   File: /home/ubuntu/.pyenv/versions/cemea-env/lib/python3.10/site-packages/gpaw_data/setups/S.dzp.basis.gz
    #   Number of radial functions: 5
    #   Number of spherical harmonics: 13
    #     l=0, rc=5.5156 Bohr: 3s-sz confined orbital
    #     l=1, rc=6.9375 Bohr: 3p-sz confined orbital
    #     l=0, rc=3.0469 Bohr: 3s-dz split-valence wave
    #     l=1, rc=3.9375 Bohr: 3p-dz split-valence wave
    #     l=2, rc=6.9375 Bohr: d-type Gaussian polarization
    #   Number of RI-basis functions 0

  H:
    name: Hydrogen
    id: 4766778ce56282eaa64abeb28b7c1de3
    Z: 1.0
    valence: 1
    core: 0
    charge: 0.0
    file: /home/ubuntu/.pyenv/versions/cemea-env/lib/python3.10/site-packages/gpaw_data/setups/H.LDA.gz
    compensation charges: {type: gauss,
                           rc: 0.15,
                           lmax: 2}
    cutoffs: {filter: 0.85,
              core: 0.53}
    projectors:
      #              energy  rcut
      - 1s(1.00)    -6.353   0.476
      -  s          20.858   0.476
      -  p           0.000   0.476
  
    # LCAO basis set for H:
    #   Name: dzp
    #   File: /home/ubuntu/.pyenv/versions/cemea-env/lib/python3.10/site-packages/gpaw_data/setups/H.dzp.basis.gz
    #   Number of radial functions: 3
    #   Number of spherical harmonics: 5
    #     l=0, rc=6.4219 Bohr: 1s-sz confined orbital
    #     l=0, rc=3.6094 Bohr: 1s-dz split-valence wave
    #     l=1, rc=6.4219 Bohr: p-type Gaussian polarization
    #   Number of RI-basis functions 0

Reference energy: -1558390.732165  # eV

Spin-paired calculation

Convergence criteria:
 Maximum [total energy] change in last 3 cyles: 1e-05 eV / valence electron
 Maximum integral of absolute [dens]ity change: 0.0001 electrons / valence electron
 Maximum integral of absolute [eigenst]ate change: 1e-05 eV^2 / valence electron
 Maximum number of scf [iter]ations: 333
 (Square brackets indicate name in SCF output, whereas a 'c' in
 the SCF output indicates the quantity has converged.)

Symmetries present (total): 1

  ( 1  0  0)
  ( 0  1  0)
  ( 0  0  1)

16 k-points: 4 x 4 x 1 Monkhorst-Pack grid
8 k-points in the irreducible part of the Brillouin zone
       k-points in crystal coordinates                weights
   0:     0.12500000   -0.37500000    0.00000000          2/16
   1:     0.12500000   -0.12500000    0.00000000          2/16
   2:     0.12500000    0.12500000    0.00000000          2/16
   3:     0.12500000    0.37500000    0.00000000          2/16
   4:     0.37500000   -0.37500000    0.00000000          2/16
   5:     0.37500000   -0.12500000    0.00000000          2/16
   6:     0.37500000    0.12500000    0.00000000          2/16
   7:     0.37500000    0.37500000    0.00000000          2/16

Wave functions: LCAO
  Diagonalizer: Serial LAPACK
  Atomic Correction: dense with blas
  Data-type: complex
 

Occupation numbers: Fermi-Dirac:
  width: 0.1000  # eV
 

Eigensolver
   LCAO using direct dense diagonalizer 

Densities:
  Coarse grid: 156*28*96 grid
  Fine grid: 312*56*192 grid
  Total Charge: 0.000000 

Density mixing:
  Method: separate
  Backend: pulay
  Linear mixing parameter: 0.05
  old densities: 5
  Damping of long wavelength oscillations: 50 

Hamiltonian:
  XC and Coulomb potentials evaluated on a 312*56*192 grid
  Using the LDA Exchange-Correlation functional
  Interpolation: tri-quintic (5. degree polynomial)
  Poisson solver: FastPoissonSolver using
    Stencil: 8*3+1=25 point O(h^6) finite-difference Laplacian
    FFT axes: [np.int64(0), np.int64(1), np.int64(2)]
    FST axes: []
 

Memory estimate:
  Process memory now: 1856.31 MiB
  Calculator: 534.38 MiB
    Density: 211.58 MiB
      Arrays: 83.18 MiB
      Localized functions: 96.41 MiB
      Mixer: 31.99 MiB
    Hamiltonian: 61.31 MiB
      Arrays: 54.39 MiB
      XC: 0.00 MiB
      Poisson: 0.00 MiB
      vbar: 6.92 MiB
    Wavefunctions: 261.48 MiB
      C [qnM]: 14.43 MiB
      S, T [2 x qmm]: 99.69 MiB
      P [aqMi]: 2.47 MiB
      BasisFunctions: 144.89 MiB
      Eigensolver: 0.00 MiB

Total number of cores used: 1

Number of atoms: 35
Number of atomic orbitals: 639
Number of bands in calculation: 185
Number of valence electrons: 301
Bands to converge: occupied

... initialized

Initializing position-dependent things.

Density initialized from atomic densities
                                                              
                                                              
                                                              
                                                              
                                                              
                  S      S     H S       S       S            
                                                              
            S       S       S       S      S       S          
         Mo      Mo     Mo      Mo      Mo      Mo            
             S       S       S       S       S      S         
           Mo      Mo      Mo      Mo     Mo      Mo          
               S       S       S       S       S              
                                                              
                                                              
                                                              
                                                              

Atomic positions and initial magnetic moments

Positions:
   0 Mo     9.237604    0.000000    9.475400    ( 0.0000,  0.0000,  0.0000)
   1 S      9.237604    1.824427   10.950800    ( 0.0000,  0.0000,  0.0000)
   2 S     10.817604    0.912213    8.000000    ( 0.0000,  0.0000,  0.0000)
   3 Mo     7.657604    2.736640    9.475400    ( 0.0000,  0.0000,  0.0000)
   4 S      9.237604    3.648854    8.000000    ( 0.0000,  0.0000,  0.0000)
   5 Mo    12.397604    0.000000    9.475400    ( 0.0000,  0.0000,  0.0000)
   6 S     12.397604    1.824427   10.950800    ( 0.0000,  0.0000,  0.0000)
   7 S     13.977604    0.912213    8.000000    ( 0.0000,  0.0000,  0.0000)
   8 Mo    10.817604    2.736640    9.475400    ( 0.0000,  0.0000,  0.0000)
   9 S     10.817604    4.561067   10.950800    ( 0.0000,  0.0000,  0.0000)
  10 S     12.397604    3.648854    8.000000    ( 0.0000,  0.0000,  0.0000)
  11 Mo    15.557604    0.000000    9.475400    ( 0.0000,  0.0000,  0.0000)
  12 S     15.557604    1.824427   10.950800    ( 0.0000,  0.0000,  0.0000)
  13 S     17.137604    0.912213    8.000000    ( 0.0000,  0.0000,  0.0000)
  14 Mo    13.977604    2.736640    9.475400    ( 0.0000,  0.0000,  0.0000)
  15 S     13.977604    4.561067   10.950800    ( 0.0000,  0.0000,  0.0000)
  16 S     15.557604    3.648854    8.000000    ( 0.0000,  0.0000,  0.0000)
  17 Mo    18.717604    0.000000    9.475400    ( 0.0000,  0.0000,  0.0000)
  18 S     18.717604    1.824427   10.950800    ( 0.0000,  0.0000,  0.0000)
  19 S     20.297604    0.912213    8.000000    ( 0.0000,  0.0000,  0.0000)
  20 Mo    17.137604    2.736640    9.475400    ( 0.0000,  0.0000,  0.0000)
  21 S     17.137604    4.561067   10.950800    ( 0.0000,  0.0000,  0.0000)
  22 S     18.717604    3.648854    8.000000    ( 0.0000,  0.0000,  0.0000)
  23 Mo    21.877604    0.000000    9.475400    ( 0.0000,  0.0000,  0.0000)
  24 S     21.877604    1.824427   10.950800    ( 0.0000,  0.0000,  0.0000)
  25 S     23.457604    0.912213    8.000000    ( 0.0000,  0.0000,  0.0000)
  26 Mo    20.297604    2.736640    9.475400    ( 0.0000,  0.0000,  0.0000)
  27 S     20.297604    4.561067   10.950800    ( 0.0000,  0.0000,  0.0000)
  28 S     21.877604    3.648854    8.000000    ( 0.0000,  0.0000,  0.0000)
  29 Mo    25.037604    0.000000    9.475400    ( 0.0000,  0.0000,  0.0000)
  30 S     25.037604    1.824427   10.950800    ( 0.0000,  0.0000,  0.0000)
  31 Mo    23.457604    2.736640    9.475400    ( 0.0000,  0.0000,  0.0000)
  32 S     23.457604    4.561067   10.950800    ( 0.0000,  0.0000,  0.0000)
  33 S     25.037604    3.648854    8.000000    ( 0.0000,  0.0000,  0.0000)
  34 H     16.858781    2.253704   12.450800    ( 0.0000,  0.0000,  0.0000)

Unit cell:
           periodic     x           y           z      points  spacing
  1. axis:    yes   36.381875    0.000000    0.000000   156     0.2020
  2. axis:    yes   -3.160000    5.473281    0.000000    28     0.1955
  3. axis:    yes    0.000000    0.000000   18.950800    96     0.1974

  Lengths:  36.381875   6.320000  18.950800
  Angles:   90.000000  90.000000 120.000000

Effective grid spacing dv^(1/3) = 0.2080

     iter     time        total  log10-change:
                         energy   eigst   dens
iter:   1 10:58:11  -264.978640        c
iter:   2 11:04:14  -269.162756        c -1.15
iter:   3 11:10:37  -255.512517        c -1.12
iter:   4 11:16:48  -251.925002        c -1.25
iter:   5 11:23:04  -250.692305        c -1.30
iter:   6 11:29:24  -249.340022        c -1.34
iter:   7 11:35:40  -248.064791        c -1.42
iter:   8 11:42:02  -247.964471        c -1.54
iter:   9 11:48:22  -248.746424        c -1.60
iter:  10 11:54:24  -247.354963        c -1.54
iter:  11 12:00:40  -247.328025        c -1.87
iter:  12 12:06:38  -247.110642        c -1.93
iter:  13 12:12:56  -247.085301        c -2.14
iter:  14 12:19:25  -247.053216        c -2.22
iter:  15 12:25:44  -247.042965        c -2.43
iter:  16 12:32:05  -247.053278        c -2.59
iter:  17 12:38:24  -247.037059        c -2.54
iter:  18 12:44:35  -247.035752        c -2.84
iter:  19 12:51:10  -247.034588c       c -2.92
iter:  20 12:57:16  -247.033798c       c -2.98
iter:  21 13:03:30  -247.033115c       c -3.08
iter:  22 13:09:45  -247.033688c       c -3.16
iter:  23 13:16:12  -247.032825c       c -3.30
iter:  24 13:22:37  -247.032906c       c -3.47
iter:  25 13:29:00  -247.032944c       c -3.67
iter:  26 13:35:33  -247.032910c       c -3.80
iter:  27 13:41:35  -247.032920c       c -3.90
iter:  28 13:47:58  -247.032812c       c -4.03c

Converged after 28 iterations.

Dipole moment: (2.408033, -7.324605, 0.079816) |e|*Ang

Energy contributions relative to reference atoms: (reference = -1558390.732165)

Kinetic:       +218.296421
Potential:     -250.094197
External:        +0.000000
XC:            -215.720240
Entropy (-ST):   -0.741012
Local:           +0.855710
SIC:             +0.000000
--------------------------
Free energy:   -247.403318
Extrapolated:  -247.032812

Showing only first 2 kpts
 Kpt  Band  Eigenvalues  Occupancy
  0   148     -3.17742    1.65951
  0   149     -3.11101    1.42999
  0   150     -3.07367    1.26658
  0   151     -2.95605    0.69512

  1   148     -3.20421    1.72867
  1   149     -3.05677    1.18649
  1   150     -2.99050    0.85831
  1   151     -2.91160    0.50918


Fermi level: -3.01903

No gap
No difference between direct/indirect transitions
Timing:                              incl.     excl.
-----------------------------------------------------------
Basic WFS set positions:             0.001     0.001   0.0% |
Basis functions set positions:       0.183     0.183   0.0% |
LCAO WFS Initialize:                 1.322     0.281   0.0% |
 Hamiltonian:                        1.041     0.000   0.0% |
  Atomic:                            0.203     0.002   0.0% |
   XC Correction:                    0.201     0.201   0.0% |
  Calculate atomic Hamiltonians:     0.020     0.020   0.0% |
  Communicate:                       0.000     0.000   0.0% |
  Hartree integrate/restrict:        0.073     0.073   0.0% |
  Initialize Hamiltonian:            0.000     0.000   0.0% |
  Poisson:                           0.530     0.022   0.0% |
   Communicate from 1D:              0.081     0.081   0.0% |
   Communicate from 2D:              0.078     0.078   0.0% |
   Communicate to 1D:                0.081     0.081   0.0% |
   Communicate to 2D:                0.075     0.075   0.0% |
   FFT 1D:                           0.050     0.050   0.0% |
   FFT 2D:                           0.141     0.141   0.0% |
  XC 3D grid:                        0.177     0.177   0.0% |
  vbar:                              0.037     0.037   0.0% |
P tci:                               3.040     3.040   0.0% |
SCF-cycle:                       10520.243     0.045   0.0% |
 Density:                          729.812     0.001   0.0% |
  Atomic density matrices:           0.358     0.358   0.0% |
  Mix:                              11.249    11.249   0.1% |
  Multipole moments:                 0.015     0.015   0.0% |
  Normalize:                         0.018     0.018   0.0% |
  Pseudo density:                  718.171     0.052   0.0% |
   Calculate density matrix:         8.149     8.149   0.1% |
   Construct density:              709.969   709.969   6.7% |--|
   Symmetrize density:               0.001     0.001   0.0% |
 Hamiltonian:                       26.834     0.003   0.0% |
  Atomic:                            5.538     0.071   0.0% |
   XC Correction:                    5.467     5.467   0.1% |
  Calculate atomic Hamiltonians:     0.603     0.603   0.0% |
  Communicate:                       0.000     0.000   0.0% |
  Hartree integrate/restrict:        2.102     2.102   0.0% |
  Poisson:                          13.133     0.463   0.0% |
   Communicate from 1D:              2.022     2.022   0.0% |
   Communicate from 2D:              1.910     1.910   0.0% |
   Communicate to 1D:                1.889     1.889   0.0% |
   Communicate to 2D:                1.980     1.980   0.0% |
   FFT 1D:                           1.255     1.255   0.0% |
   FFT 2D:                           3.614     3.614   0.0% |
  XC 3D grid:                        4.663     4.663   0.0% |
  vbar:                              0.792     0.792   0.0% |
 LCAO eigensolver:                9763.552     0.334   0.0% |
  Calculate projections:            21.580    21.580   0.2% |
  DenseAtomicCorrection:           235.283   235.283   2.2% ||
  Distribute overlap matrix:         0.183     0.183   0.0% |
  Orbital Layouts:                9364.580  9364.580  88.9% |-----------------------------------|
  Potential matrix:                134.827   134.827   1.3% ||
  Sum over cells:                    6.766     6.766   0.1% |
ST tci:                              0.629     0.629   0.0% |
Set symmetry:                        0.001     0.001   0.0% |
TCI: Evaluate splines:               0.387     0.387   0.0% |
mktci:                               0.015     0.015   0.0% |
Other:                              11.214    11.214   0.1% |
-----------------------------------------------------------
Total:                                     10537.035 100.0%

Memory usage: 1.81 GiB
Date: Thu Feb 19 13:47:58 2026
