
  ___ ___ ___ _ _ _  
 |   |   |_  | | | | 
 | | | | | . | | | | 
 |__ |  _|___|_____|  25.7.0
 |___|_|             

User:   ubuntu@third-test
Date:   Fri Feb 13 05:43:08 2026
Arch:   x86_64
Pid:    1539777
CWD:    /mnt/vdd1/work/cemea/fairchem/src/fairchem/applications/ocx/mo_h_adsorption_workflow
Python: 3.10.16
gpaw:   /home/ubuntu/.pyenv/versions/cemea-env/lib/python3.10/site-packages/gpaw
_gpaw:  /home/ubuntu/.pyenv/versions/cemea-env/lib/python3.10/site-packages/
        _gpaw.cpython-310-x86_64-linux-gnu.so
ase:    /home/ubuntu/.pyenv/versions/cemea-env/lib/python3.10/site-packages/ase (version 3.27.0)
numpy:  /home/ubuntu/.pyenv/versions/cemea-env/lib/python3.10/site-packages/numpy (version 2.2.6)
scipy:  /home/ubuntu/.pyenv/versions/cemea-env/lib/python3.10/site-packages/scipy (version 1.15.3)
libxc:  2.x.y
units:  Angstrom and eV
cores: 1
OpenMP: False
OMP_NUM_THREADS: 1

Input parameters:
  basis: dzp
  convergence: {density: 0.0001,
                eigenstates: 1e-05,
                energy: 1e-05}
  kpts: [4 4 1]
  mode: lcao

System changes: positions, numbers, cell, pbc, initial_charges, initial_magmoms 

Initialize ...

species:
  Ni:
    name: Nickel
    id: 1802175e8de9ea26d9f4394ec1a7d564
    Z: 28.0
    valence: 16
    core: 12
    charge: 0.0
    file: /home/ubuntu/.pyenv/versions/cemea-env/lib/python3.10/site-packages/gpaw_data/setups/Ni.LDA.gz
    compensation charges: {type: gauss,
                           rc: 0.36,
                           lmax: 2}
    cutoffs: {filter: 2.14,
              core: 1.98}
    projectors:
      #              energy  rcut
      - 4s(2.00)    -5.858   1.164
      - 3p(6.00)   -71.266   1.207
      - 4p(0.00)    -1.338   1.207
      - 3d(8.00)    -9.141   1.138
      -  s          21.353   1.164
      -  d          18.071   1.138
  
    # LCAO basis set for Ni:
    #   Name: dzp
    #   File: /home/ubuntu/.pyenv/versions/cemea-env/lib/python3.10/site-packages/gpaw_data/setups/Ni.dzp.basis.gz
    #   Number of radial functions: 9
    #   Number of spherical harmonics: 27
    #     l=0, rc=8.5156 Bohr: 4s-sz confined orbital
    #     l=1, rc=2.9375 Bohr: 3p-sz confined orbital
    #     l=1, rc=12.4062 Bohr: 4p-sz confined orbital
    #     l=2, rc=4.6875 Bohr: 3d-sz confined orbital
    #     l=0, rc=4.9688 Bohr: 4s-dz split-valence wave
    #     l=1, rc=2.0781 Bohr: 3p-dz split-valence wave
    #     l=1, rc=7.5469 Bohr: 4p-dz split-valence wave
    #     l=2, rc=2.9375 Bohr: 3d-dz split-valence wave
    #     l=1, rc=8.5156 Bohr: p-type Gaussian polarization
    #   Number of RI-basis functions 0

  Mo:
    name: Molybdenum
    id: ac24daaf086600a00ce6d19a74574df1
    Z: 42.0
    valence: 14
    core: 28
    charge: 0.0
    file: /home/ubuntu/.pyenv/versions/cemea-env/lib/python3.10/site-packages/gpaw_data/setups/Mo.LDA.gz
    compensation charges: {type: gauss,
                           rc: 0.38,
                           lmax: 2}
    cutoffs: {filter: 2.16,
              core: 1.42}
    projectors:
      #              energy  rcut
      - 4s(2.00)   -64.384   1.238
      - 5s(1.00)    -4.319   1.238
      - 4p(6.00)   -38.595   1.296
      - 5p(0.00)    -1.161   1.296
      - 4d(5.00)    -3.933   1.296
      -  d          23.278   1.296
  
    # LCAO basis set for Mo:
    #   Name: dzp
    #   File: /home/ubuntu/.pyenv/versions/cemea-env/lib/python3.10/site-packages/gpaw_data/setups/Mo.dzp.basis.gz
    #   Number of radial functions: 11
    #   Number of spherical harmonics: 29
    #     l=0, rc=3.5469 Bohr: 4s-sz confined orbital
    #     l=0, rc=10.0469 Bohr: 5s-sz confined orbital
    #     l=1, rc=4.0781 Bohr: 4p-sz confined orbital
    #     l=1, rc=14.0938 Bohr: 5p-sz confined orbital
    #     l=2, rc=7.2031 Bohr: 4d-sz confined orbital
    #     l=0, rc=2.1250 Bohr: 4s-dz split-valence wave
    #     l=0, rc=6.1250 Bohr: 5s-dz split-valence wave
    #     l=1, rc=2.5469 Bohr: 4p-dz split-valence wave
    #     l=1, rc=8.7656 Bohr: 5p-dz split-valence wave
    #     l=2, rc=4.2344 Bohr: 4d-dz split-valence wave
    #     l=1, rc=10.0469 Bohr: p-type Gaussian polarization
    #   Number of RI-basis functions 0

  N:
    name: Nitrogen
    id: c467cdfa1b75f62c8f7a0469921b1cfb
    Z: 7.0
    valence: 5
    core: 2
    charge: 0.0
    file: /home/ubuntu/.pyenv/versions/cemea-env/lib/python3.10/site-packages/gpaw_data/setups/N.LDA.gz
    compensation charges: {type: gauss,
                           rc: 0.18,
                           lmax: 2}
    cutoffs: {filter: 1.11,
              core: 0.96}
    projectors:
      #              energy  rcut
      - 2s(2.00)   -18.420   0.603
      - 2p(3.00)    -7.237   0.529
      -  s           8.791   0.603
      -  p          19.974   0.529
      -  d           0.000   0.577
  
    # LCAO basis set for N:
    #   Name: dzp
    #   File: /home/ubuntu/.pyenv/versions/cemea-env/lib/python3.10/site-packages/gpaw_data/setups/N.dzp.basis.gz
    #   Number of radial functions: 5
    #   Number of spherical harmonics: 13
    #     l=0, rc=4.8594 Bohr: 2s-sz confined orbital
    #     l=1, rc=6.0625 Bohr: 2p-sz confined orbital
    #     l=0, rc=2.6094 Bohr: 2s-dz split-valence wave
    #     l=1, rc=3.2656 Bohr: 2p-dz split-valence wave
    #     l=2, rc=6.0625 Bohr: d-type Gaussian polarization
    #   Number of RI-basis functions 0

  H:
    name: Hydrogen
    id: 4766778ce56282eaa64abeb28b7c1de3
    Z: 1.0
    valence: 1
    core: 0
    charge: 0.0
    file: /home/ubuntu/.pyenv/versions/cemea-env/lib/python3.10/site-packages/gpaw_data/setups/H.LDA.gz
    compensation charges: {type: gauss,
                           rc: 0.15,
                           lmax: 2}
    cutoffs: {filter: 0.85,
              core: 0.53}
    projectors:
      #              energy  rcut
      - 1s(1.00)    -6.353   0.476
      -  s          20.858   0.476
      -  p           0.000   0.476
  
    # LCAO basis set for H:
    #   Name: dzp
    #   File: /home/ubuntu/.pyenv/versions/cemea-env/lib/python3.10/site-packages/gpaw_data/setups/H.dzp.basis.gz
    #   Number of radial functions: 3
    #   Number of spherical harmonics: 5
    #     l=0, rc=6.4219 Bohr: 1s-sz confined orbital
    #     l=0, rc=3.6094 Bohr: 1s-dz split-valence wave
    #     l=1, rc=6.4219 Bohr: p-type Gaussian polarization
    #   Number of RI-basis functions 0

Reference energy: -2372875.582349  # eV

Spin-paired calculation

Convergence criteria:
 Maximum [total energy] change in last 3 cyles: 1e-05 eV / valence electron
 Maximum integral of absolute [dens]ity change: 0.0001 electrons / valence electron
 Maximum integral of absolute [eigenst]ate change: 1e-05 eV^2 / valence electron
 Maximum number of scf [iter]ations: 333
 (Square brackets indicate name in SCF output, whereas a 'c' in
 the SCF output indicates the quantity has converged.)

Symmetries present (total): 1

  ( 1  0  0)
  ( 0  1  0)
  ( 0  0  1)

16 k-points: 4 x 4 x 1 Monkhorst-Pack grid
8 k-points in the irreducible part of the Brillouin zone
       k-points in crystal coordinates                weights
   0:     0.12500000   -0.37500000    0.00000000          2/16
   1:     0.12500000   -0.12500000    0.00000000          2/16
   2:     0.12500000    0.12500000    0.00000000          2/16
   3:     0.12500000    0.37500000    0.00000000          2/16
   4:     0.37500000   -0.37500000    0.00000000          2/16
   5:     0.37500000   -0.12500000    0.00000000          2/16
   6:     0.37500000    0.12500000    0.00000000          2/16
   7:     0.37500000    0.37500000    0.00000000          2/16

Wave functions: LCAO
  Diagonalizer: Serial LAPACK
  Atomic Correction: dense with blas
  Data-type: complex
 

Occupation numbers: Fermi-Dirac:
  width: 0.1000  # eV
 

Eigensolver
   LCAO using direct dense diagonalizer 

Densities:
  Coarse grid: 32*32*132 grid
  Fine grid: 64*64*264 grid
  Total Charge: 0.000000 

Density mixing:
  Method: separate
  Backend: pulay
  Linear mixing parameter: 0.05
  old densities: 5
  Damping of long wavelength oscillations: 50 

Hamiltonian:
  XC and Coulomb potentials evaluated on a 64*64*264 grid
  Using the LDA Exchange-Correlation functional
  Interpolation: tri-quintic (5. degree polynomial)
  Poisson solver: FastPoissonSolver using
    Stencil: 8*3+1=25 point O(h^6) finite-difference Laplacian
    FFT axes: [np.int64(0), np.int64(1), np.int64(2)]
    FST axes: []
 

Memory estimate:
  Process memory now: 2375.12 MiB
  Calculator: 951.06 MiB
    Density: 197.66 MiB
      Arrays: 26.81 MiB
      Localized functions: 160.54 MiB
      Mixer: 10.31 MiB
    Hamiltonian: 29.45 MiB
      Arrays: 17.53 MiB
      XC: 0.00 MiB
      Poisson: 0.00 MiB
      vbar: 11.92 MiB
    Wavefunctions: 723.95 MiB
      C [qnM]: 66.19 MiB
      S, T [2 x qmm]: 388.21 MiB
      P [aqMi]: 8.17 MiB
      BasisFunctions: 261.38 MiB
      Eigensolver: 0.00 MiB

Total number of cores used: 1

Number of atoms: 49
Number of atomic orbitals: 1261
Number of bands in calculation: 430
Number of valence electrons: 709
Bands to converge: occupied

... initialized

Initializing position-dependent things.

Density initialized from atomic densities
                                         
                                         
                                         
                                         
                                         
                                         
                MoH       Mo             
                                         
             Mo N      Mo N              
         Mo         Mo                   
                                         
             N         N                 
       Mo       NMo   Ni    Ni           
           Ni    Ni    Ni                
                Ni     Ni    Ni          
       Ni   NNi   NNi   Ni               
        Ni    Ni    Ni                   
                   Ni    Ni    Ni        
               Ni    Ni    Ni            
           Ni    Ni    Ni                
                Ni    Ni    Ni           
           Ni    Ni    Ni                
       Ni    Ni    Ni                    
                                         
                                         
                                         
                                         

Atomic positions and initial magnetic moments

Positions:
   0 Ni     0.000000    0.000000    8.000000    ( 0.0000,  0.0000,  0.0000)
   1 Ni     2.489016    0.000000    8.000000    ( 0.0000,  0.0000,  0.0000)
   2 Ni     4.978032    0.000000    8.000000    ( 0.0000,  0.0000,  0.0000)
   3 Ni     1.244508    2.155551    8.000000    ( 0.0000,  0.0000,  0.0000)
   4 Ni     3.733524    2.155551    8.000000    ( 0.0000,  0.0000,  0.0000)
   5 Ni     6.222540    2.155551    8.000000    ( 0.0000,  0.0000,  0.0000)
   6 Ni     2.489016    4.311102    8.000000    ( 0.0000,  0.0000,  0.0000)
   7 Ni     4.978032    4.311102    8.000000    ( 0.0000,  0.0000,  0.0000)
   8 Ni     7.467048    4.311102    8.000000    ( 0.0000,  0.0000,  0.0000)
   9 Ni     1.244508    0.718517   10.032273    ( 0.0000,  0.0000,  0.0000)
  10 Ni     3.733524    0.718517   10.032273    ( 0.0000,  0.0000,  0.0000)
  11 Ni     6.222540    0.718517   10.032273    ( 0.0000,  0.0000,  0.0000)
  12 Ni     2.489016    2.874068   10.032273    ( 0.0000,  0.0000,  0.0000)
  13 Ni     4.978032    2.874068   10.032273    ( 0.0000,  0.0000,  0.0000)
  14 Ni     7.467048    2.874068   10.032273    ( 0.0000,  0.0000,  0.0000)
  15 Ni     3.733524    5.029619   10.032273    ( 0.0000,  0.0000,  0.0000)
  16 Ni     6.222540    5.029619   10.032273    ( 0.0000,  0.0000,  0.0000)
  17 Ni     8.711556    5.029619   10.032273    ( 0.0000,  0.0000,  0.0000)
  18 Ni     0.000000    1.437034   12.064546    ( 0.0000,  0.0000,  0.0000)
  19 Ni     2.489016    1.437034   12.064546    ( 0.0000,  0.0000,  0.0000)
  20 Ni     4.978032    1.437034   12.064546    ( 0.0000,  0.0000,  0.0000)
  21 Ni     1.244508    3.592585   12.064546    ( 0.0000,  0.0000,  0.0000)
  22 Ni     3.733524    3.592585   12.064546    ( 0.0000,  0.0000,  0.0000)
  23 Ni     6.222540    3.592585   12.064546    ( 0.0000,  0.0000,  0.0000)
  24 Ni     2.489016    5.748136   12.064546    ( 0.0000,  0.0000,  0.0000)
  25 Ni     4.978032    5.748136   12.064546    ( 0.0000,  0.0000,  0.0000)
  26 Ni     7.467048    5.748136   12.064546    ( 0.0000,  0.0000,  0.0000)
  27 Ni     0.000000    0.000000   14.096819    ( 0.0000,  0.0000,  0.0000)
  28 Ni     2.489016    0.000000   14.096819    ( 0.0000,  0.0000,  0.0000)
  29 Ni     4.978032    0.000000   14.096819    ( 0.0000,  0.0000,  0.0000)
  30 Ni     1.244508    2.155551   14.096819    ( 0.0000,  0.0000,  0.0000)
  31 Ni     3.733524    2.155551   14.096819    ( 0.0000,  0.0000,  0.0000)
  32 Ni     6.222540    2.155551   14.096819    ( 0.0000,  0.0000,  0.0000)
  33 Ni     2.489016    4.311102   14.096819    ( 0.0000,  0.0000,  0.0000)
  34 Ni     4.978032    4.311102   14.096819    ( 0.0000,  0.0000,  0.0000)
  35 Ni     7.467048    4.311102   14.096819    ( 0.0000,  0.0000,  0.0000)
  36 Mo     0.000000    0.000000   16.296819    ( 0.0000,  0.0000,  0.0000)
  37 Mo     2.080000    2.080000   18.376819    ( 0.0000,  0.0000,  0.0000)
  38 N      2.080000    2.080000   16.296819    ( 0.0000,  0.0000,  0.0000)
  39 Mo     0.000000    4.160000   16.296819    ( 0.0000,  0.0000,  0.0000)
  40 Mo     2.080000    6.240000   18.376819    ( 0.0000,  0.0000,  0.0000)
  41 N      2.080000    6.240000   16.296819    ( 0.0000,  0.0000,  0.0000)
  42 Mo     4.160000    0.000000   16.296819    ( 0.0000,  0.0000,  0.0000)
  43 Mo     6.240000    2.080000   18.376819    ( 0.0000,  0.0000,  0.0000)
  44 N      6.240000    2.080000   16.296819    ( 0.0000,  0.0000,  0.0000)
  45 Mo     4.160000    4.160000   16.296819    ( 0.0000,  0.0000,  0.0000)
  46 Mo     6.240000    6.240000   18.376819    ( 0.0000,  0.0000,  0.0000)
  47 N      6.240000    6.240000   16.296819    ( 0.0000,  0.0000,  0.0000)
  48 H      3.900155    2.887496   19.876819    ( 0.0000,  0.0000,  0.0000)

Unit cell:
           periodic     x           y           z      points  spacing
  1. axis:    yes    7.467048    0.000000    0.000000    32     0.2021
  2. axis:    yes    3.733524    6.466653    0.000000    32     0.2021
  3. axis:    yes    0.000000    0.000000   26.376819   132     0.1998

  Lengths:   7.467048   7.467048  26.376819
  Angles:   90.000000  90.000000  60.000000

Effective grid spacing dv^(1/3) = 0.2112

     iter     time        total  log10-change:
                         energy   eigst   dens
iter:   1 05:44:27 -1194.864585        c
iter:   2 05:47:59 -3496.246944        c -0.94
iter:   3 05:51:30 -1057.498342        c -0.51
iter:   4 05:55:01  -697.648094        c -0.93
iter:   5 05:58:33  -589.060038        c -1.16
iter:   6 06:02:06  -490.548830        c -1.22
iter:   7 06:05:40  -399.633646        c -1.34
iter:   8 06:09:12  -400.059473        c -1.55
iter:   9 06:12:46  -442.706025        c -1.51
iter:  10 06:16:19  -438.069915        c -1.53
iter:  11 06:19:52  -418.419236        c -1.38
iter:  12 06:23:27  -440.076877        c -1.56
iter:  13 06:27:00  -408.099362        c -1.41
iter:  14 06:30:32  -394.148797        c -1.50
iter:  15 06:34:06  -403.832181        c -1.68
iter:  16 06:37:40  -397.892880        c -1.71
iter:  17 06:41:15  -403.756050        c -1.65
iter:  18 06:44:46  -397.887206        c -1.65
iter:  19 06:48:19  -413.461545        c -1.75
iter:  20 06:51:50  -428.157250        c -1.62
iter:  21 06:55:22  -396.744145        c -1.61
iter:  22 06:58:57  -394.183455        c -1.82
iter:  23 07:02:33  -434.236222        c -1.84
iter:  24 07:06:04  -393.088077        c -1.41
iter:  25 07:09:35  -388.117776        c -1.89
iter:  26 07:13:07  -386.106565        c -2.02
iter:  27 07:16:38  -383.763912        c -2.08
iter:  28 07:20:10  -386.057641        c -2.18
iter:  29 07:23:42  -406.394659        c -2.14
iter:  30 07:27:12  -384.318260        c -1.58
iter:  31 07:30:46  -383.624682        c -2.22
iter:  32 07:34:20  -383.078362        c -2.15
iter:  33 07:37:50  -383.988900        c -2.29
iter:  34 07:41:24  -383.094400        c -2.16
iter:  35 07:44:55  -385.580556        c -2.37
iter:  36 07:48:28  -382.625267        c -2.17
iter:  37 07:52:01  -382.391982        c -2.56
iter:  38 07:55:33  -382.601963        c -2.59
iter:  39 07:59:08  -382.626262        c -2.63
iter:  40 08:02:40  -382.357989        c -2.54
iter:  41 08:06:14  -382.553954        c -2.68
iter:  42 08:09:47  -382.142258        c -2.46
iter:  43 08:13:19  -382.172467        c -2.88
iter:  44 08:16:52  -382.074871        c -2.84
iter:  45 08:20:26  -382.088416        c -2.94
iter:  46 08:23:59  -382.070394        c -2.87
iter:  47 08:27:33  -382.189402        c -2.90
iter:  48 08:31:06  -382.124219        c -2.79
iter:  49 08:34:36  -382.089465        c -2.99
iter:  50 08:38:08  -382.053528        c -3.16
iter:  51 08:41:37  -382.041239        c -3.03
iter:  52 08:45:08  -382.055348        c -3.22
iter:  53 08:48:38  -382.038096        c -3.11
iter:  54 08:52:11  -382.038199        c -3.44
iter:  55 08:55:40  -382.038518c       c -3.36
iter:  56 08:59:11  -382.047448        c -3.44
iter:  57 09:02:42  -382.039204        c -3.61
iter:  58 09:06:15  -382.050979        c -3.84
iter:  59 09:09:46  -382.037741        c -3.46
iter:  60 09:13:17  -382.038869        c -3.89
iter:  61 09:16:49  -382.039899c       c -4.05c

Converged after 61 iterations.

Dipole moment: (-0.969579, 22.255135, 0.652502) |e|*Ang

Energy contributions relative to reference atoms: (reference = -2372875.582349)

Kinetic:       +220.092532
Potential:     -175.280465
External:        +0.000000
XC:            -425.451641
Entropy (-ST):   -3.484945
Local:           +0.342148
SIC:             +0.000000
--------------------------
Free energy:   -383.782372
Extrapolated:  -382.039899

Showing only first 2 kpts
 Kpt  Band  Eigenvalues  Occupancy
  0   352      1.20293    1.08446
  0   353      1.22085    0.99507
  0   354      1.24908    0.85496
  0   355      1.25272    0.83717

  1   352      1.13247    1.41113
  1   353      1.14320    1.36556
  1   354      1.14645    1.35141
  1   355      1.15426    1.31673


Fermi level: 1.21986

No gap
No difference between direct/indirect transitions
Timing:                              incl.     excl.
-----------------------------------------------------------
Basic WFS set positions:             0.001     0.001   0.0% |
Basis functions set positions:       0.400     0.400   0.0% |
LCAO WFS Initialize:                 1.226     0.656   0.0% |
 Hamiltonian:                        0.570     0.000   0.0% |
  Atomic:                            0.310     0.003   0.0% |
   XC Correction:                    0.307     0.307   0.0% |
  Calculate atomic Hamiltonians:     0.043     0.043   0.0% |
  Communicate:                       0.000     0.000   0.0% |
  Hartree integrate/restrict:        0.010     0.010   0.0% |
  Initialize Hamiltonian:            0.000     0.000   0.0% |
  Poisson:                           0.145     0.009   0.0% |
   Communicate from 1D:              0.021     0.021   0.0% |
   Communicate from 2D:              0.019     0.019   0.0% |
   Communicate to 1D:                0.021     0.021   0.0% |
   Communicate to 2D:                0.026     0.026   0.0% |
   FFT 1D:                           0.014     0.014   0.0% |
   FFT 2D:                           0.035     0.035   0.0% |
  XC 3D grid:                        0.055     0.055   0.0% |
  vbar:                              0.007     0.007   0.0% |
P tci:                              15.637    15.637   0.1% |
SCF-cycle:                       12788.475     0.840   0.0% |
 Density:                         9985.091     0.003   0.0% |
  Atomic density matrices:           5.807     5.807   0.0% |
  Mix:                              15.697    15.697   0.1% |
  Multipole moments:                 0.043     0.043   0.0% |
  Normalize:                         0.009     0.009   0.0% |
  Pseudo density:                 9963.531     0.900   0.0% |
   Calculate density matrix:        26.634    26.634   0.2% |
   Construct density:             9935.993  9935.993  77.5% |------------------------------|
   Symmetrize density:               0.004     0.004   0.0% |
 Hamiltonian:                       34.381     0.006   0.0% |
  Atomic:                           18.633     0.195   0.0% |
   XC Correction:                   18.437    18.437   0.1% |
  Calculate atomic Hamiltonians:     2.408     2.408   0.0% |
  Communicate:                       0.001     0.001   0.0% |
  Hartree integrate/restrict:        0.850     0.850   0.0% |
  Poisson:                           7.915     0.423   0.0% |
   Communicate from 1D:              1.129     1.129   0.0% |
   Communicate from 2D:              1.049     1.049   0.0% |
   Communicate to 1D:                1.280     1.280   0.0% |
   Communicate to 2D:                1.313     1.313   0.0% |
   FFT 1D:                           0.765     0.765   0.0% |
   FFT 2D:                           1.956     1.956   0.0% |
  XC 3D grid:                        3.841     3.841   0.0% |
  vbar:                              0.727     0.727   0.0% |
 LCAO eigensolver:                2768.164     1.682   0.0% |
  Calculate projections:            58.093    58.093   0.5% |
  DenseAtomicCorrection:           327.984   327.984   2.6% ||
  Distribute overlap matrix:         3.538     3.538   0.0% |
  Orbital Layouts:                 340.310   340.310   2.7% ||
  Potential matrix:               1972.680  1972.680  15.4% |-----|
  Sum over cells:                   63.877    63.877   0.5% |
ST tci:                              6.008     6.008   0.0% |
Set symmetry:                        0.001     0.001   0.0% |
TCI: Evaluate splines:               0.823     0.823   0.0% |
mktci:                               0.081     0.081   0.0% |
Other:                               7.983     7.983   0.1% |
-----------------------------------------------------------
Total:                                     12820.634 100.0%

Memory usage: 2.34 GiB
Date: Fri Feb 13 09:16:49 2026
