
  ___ ___ ___ _ _ _  
 |   |   |_  | | | | 
 | | | | | . | | | | 
 |__ |  _|___|_____|  25.7.0
 |___|_|             

User:   mikei@Z790-AORUS-ELITE-AX
Date:   Tue Mar  3 17:29:35 2026
Arch:   x86_64
Pid:    89048
CWD:    /home/mikei/Dokumenty/code/cemea/ocx
Python: 3.10.16
gpaw:   /home/mikei/.pyenv/versions/cemea-env/lib/python3.10/site-packages/gpaw
_gpaw:  /home/mikei/.pyenv/versions/cemea-env/lib/python3.10/site-packages/
        _gpaw.cpython-310-x86_64-linux-gnu.so
ase:    /home/mikei/.pyenv/versions/cemea-env/lib/python3.10/site-packages/ase (version 3.27.0)
numpy:  /home/mikei/.pyenv/versions/cemea-env/lib/python3.10/site-packages/numpy (version 2.2.6)
scipy:  /home/mikei/.pyenv/versions/cemea-env/lib/python3.10/site-packages/scipy (version 1.15.3)
libxc:  2.x.y
units:  Angstrom and eV
cores: 1
OpenMP: False
OMP_NUM_THREADS: 1

Input parameters:
  basis: dzp
  convergence: {density: 0.0001,
                eigenstates: 1e-05,
                energy: 1e-05}
  kpts: [4 4 1]
  mode: lcao

System changes: positions, numbers, cell, pbc, initial_charges, initial_magmoms 

Initialize ...

species:
  Ni:
    name: Nickel
    id: 1802175e8de9ea26d9f4394ec1a7d564
    Z: 28.0
    valence: 16
    core: 12
    charge: 0.0
    file: /home/mikei/.pyenv/versions/cemea-env/lib/python3.10/site-packages/gpaw_data/setups/Ni.LDA.gz
    compensation charges: {type: gauss,
                           rc: 0.36,
                           lmax: 2}
    cutoffs: {filter: 2.14,
              core: 1.98}
    projectors:
      #              energy  rcut
      - 4s(2.00)    -5.858   1.164
      - 3p(6.00)   -71.266   1.207
      - 4p(0.00)    -1.338   1.207
      - 3d(8.00)    -9.141   1.138
      -  s          21.353   1.164
      -  d          18.071   1.138
  
    # LCAO basis set for Ni:
    #   Name: dzp
    #   File: /home/mikei/.pyenv/versions/cemea-env/lib/python3.10/site-packages/gpaw_data/setups/Ni.dzp.basis.gz
    #   Number of radial functions: 9
    #   Number of spherical harmonics: 27
    #     l=0, rc=8.5156 Bohr: 4s-sz confined orbital
    #     l=1, rc=2.9375 Bohr: 3p-sz confined orbital
    #     l=1, rc=12.4062 Bohr: 4p-sz confined orbital
    #     l=2, rc=4.6875 Bohr: 3d-sz confined orbital
    #     l=0, rc=4.9688 Bohr: 4s-dz split-valence wave
    #     l=1, rc=2.0781 Bohr: 3p-dz split-valence wave
    #     l=1, rc=7.5469 Bohr: 4p-dz split-valence wave
    #     l=2, rc=2.9375 Bohr: 3d-dz split-valence wave
    #     l=1, rc=8.5156 Bohr: p-type Gaussian polarization
    #   Number of RI-basis functions 0

  Mo:
    name: Molybdenum
    id: ac24daaf086600a00ce6d19a74574df1
    Z: 42.0
    valence: 14
    core: 28
    charge: 0.0
    file: /home/mikei/.pyenv/versions/cemea-env/lib/python3.10/site-packages/gpaw_data/setups/Mo.LDA.gz
    compensation charges: {type: gauss,
                           rc: 0.38,
                           lmax: 2}
    cutoffs: {filter: 2.16,
              core: 1.42}
    projectors:
      #              energy  rcut
      - 4s(2.00)   -64.384   1.238
      - 5s(1.00)    -4.319   1.238
      - 4p(6.00)   -38.595   1.296
      - 5p(0.00)    -1.161   1.296
      - 4d(5.00)    -3.933   1.296
      -  d          23.278   1.296
  
    # LCAO basis set for Mo:
    #   Name: dzp
    #   File: /home/mikei/.pyenv/versions/cemea-env/lib/python3.10/site-packages/gpaw_data/setups/Mo.dzp.basis.gz
    #   Number of radial functions: 11
    #   Number of spherical harmonics: 29
    #     l=0, rc=3.5469 Bohr: 4s-sz confined orbital
    #     l=0, rc=10.0469 Bohr: 5s-sz confined orbital
    #     l=1, rc=4.0781 Bohr: 4p-sz confined orbital
    #     l=1, rc=14.0938 Bohr: 5p-sz confined orbital
    #     l=2, rc=7.2031 Bohr: 4d-sz confined orbital
    #     l=0, rc=2.1250 Bohr: 4s-dz split-valence wave
    #     l=0, rc=6.1250 Bohr: 5s-dz split-valence wave
    #     l=1, rc=2.5469 Bohr: 4p-dz split-valence wave
    #     l=1, rc=8.7656 Bohr: 5p-dz split-valence wave
    #     l=2, rc=4.2344 Bohr: 4d-dz split-valence wave
    #     l=1, rc=10.0469 Bohr: p-type Gaussian polarization
    #   Number of RI-basis functions 0

  B:
    name: Boron
    id: 02e2e0e88ef95f403158802f6b0f4231
    Z: 5.0
    valence: 3
    core: 2
    charge: 0.0
    file: /home/mikei/.pyenv/versions/cemea-env/lib/python3.10/site-packages/gpaw_data/setups/B.LDA.gz
    compensation charges: {type: gauss,
                           rc: 0.20,
                           lmax: 2}
    cutoffs: {filter: 1.14,
              core: 1.42}
    projectors:
      #              energy  rcut
      - 2s(2.00)    -9.383   0.635
      - 2p(1.00)    -3.714   0.635
      -  s          17.828   0.635
      -  p          23.498   0.635
      -  d           0.000   0.635
  
    # LCAO basis set for B:
    #   Name: dzp
    #   File: /home/mikei/.pyenv/versions/cemea-env/lib/python3.10/site-packages/gpaw_data/setups/B.dzp.basis.gz
    #   Number of radial functions: 5
    #   Number of spherical harmonics: 13
    #     l=0, rc=6.6719 Bohr: 2s-sz confined orbital
    #     l=1, rc=8.2188 Bohr: 2p-sz confined orbital
    #     l=0, rc=3.7500 Bohr: 2s-dz split-valence wave
    #     l=1, rc=4.6094 Bohr: 2p-dz split-valence wave
    #     l=2, rc=8.2188 Bohr: d-type Gaussian polarization
    #   Number of RI-basis functions 0

  Ru:
    name: Ruthenium
    id: ee1c9ca112952e47c1459e90f4850566
    Z: 44.0
    valence: 16
    core: 28
    charge: 0.0
    file: /home/mikei/.pyenv/versions/cemea-env/lib/python3.10/site-packages/gpaw_data/setups/Ru.LDA.gz
    compensation charges: {type: gauss,
                           rc: 0.39,
                           lmax: 2}
    cutoffs: {filter: 2.16,
              core: 1.30}
    projectors:
      #              energy  rcut
      - 4s(2.00)   -76.385   1.281
      - 5s(1.00)    -4.507   1.281
      - 4p(6.00)   -46.536   1.286
      - 5p(0.00)    -1.033   1.286
      - 4d(7.00)    -5.402   1.254
      -  d          21.810   1.254
  
    # LCAO basis set for Ru:
    #   Name: dzp
    #   File: /home/mikei/.pyenv/versions/cemea-env/lib/python3.10/site-packages/gpaw_data/setups/Ru.dzp.basis.gz
    #   Number of radial functions: 11
    #   Number of spherical harmonics: 29
    #     l=0, rc=3.2969 Bohr: 4s-sz confined orbital
    #     l=0, rc=9.6875 Bohr: 5s-sz confined orbital
    #     l=1, rc=3.7656 Bohr: 4p-sz confined orbital
    #     l=1, rc=14.0938 Bohr: 5p-sz confined orbital
    #     l=2, rc=6.3281 Bohr: 4d-sz confined orbital
    #     l=0, rc=2.0781 Bohr: 4s-dz split-valence wave
    #     l=0, rc=5.8281 Bohr: 5s-dz split-valence wave
    #     l=1, rc=2.4219 Bohr: 4p-dz split-valence wave
    #     l=1, rc=8.7031 Bohr: 5p-dz split-valence wave
    #     l=2, rc=3.7500 Bohr: 4d-dz split-valence wave
    #     l=1, rc=9.6875 Bohr: p-type Gaussian polarization
    #   Number of RI-basis functions 0

Reference energy: -2422044.820423  # eV

Spin-paired calculation

Convergence criteria:
 Maximum [total energy] change in last 3 cyles: 1e-05 eV / valence electron
 Maximum integral of absolute [dens]ity change: 0.0001 electrons / valence electron
 Maximum integral of absolute [eigenst]ate change: 1e-05 eV^2 / valence electron
 Maximum number of scf [iter]ations: 333
 (Square brackets indicate name in SCF output, whereas a 'c' in
 the SCF output indicates the quantity has converged.)

Symmetries present (total): 2

  ( 1  0  0)  ( 0  1  0)
  ( 0  1  0)  ( 1  0  0)
  ( 0  0  1)  ( 0  0  1)

16 k-points: 4 x 4 x 1 Monkhorst-Pack grid
6 k-points in the irreducible part of the Brillouin zone
       k-points in crystal coordinates                weights
   0:     0.12500000   -0.12500000    0.00000000          2/16
   1:     0.12500000    0.12500000    0.00000000          2/16
   2:     0.37500000   -0.37500000    0.00000000          2/16
   3:     0.37500000   -0.12500000    0.00000000          4/16
   4:     0.37500000    0.12500000    0.00000000          4/16
   5:     0.37500000    0.37500000    0.00000000          2/16

Wave functions: LCAO
  Diagonalizer: Serial LAPACK
  Atomic Correction: dense with blas
  Data-type: complex
 

Occupation numbers: Fermi-Dirac:
  width: 0.1000  # eV
 

Eigensolver
   LCAO using direct dense diagonalizer 

Densities:
  Coarse grid: 36*36*124 grid
  Fine grid: 72*72*248 grid
  Total Charge: 0.000000 

Density mixing:
  Method: separate
  Backend: pulay
  Linear mixing parameter: 0.05
  old densities: 5
  Damping of long wavelength oscillations: 50 

Hamiltonian:
  XC and Coulomb potentials evaluated on a 72*72*248 grid
  Using the LDA Exchange-Correlation functional
  Interpolation: tri-quintic (5. degree polynomial)
  Poisson solver: FastPoissonSolver using
    Stencil: 6*3+1=19 point O(h^6) finite-difference Laplacian
    FFT axes: [np.int64(0), np.int64(1), np.int64(2)]
    FST axes: []
 

Memory estimate:
  Process memory now: 4818.40 MiB
  Calculator: 883.39 MiB
    Density: 218.15 MiB
      Arrays: 31.88 MiB
      Localized functions: 174.02 MiB
      Mixer: 12.26 MiB
    Hamiltonian: 33.79 MiB
      Arrays: 20.84 MiB
      XC: 0.00 MiB
      Poisson: 0.00 MiB
      vbar: 12.94 MiB
    Wavefunctions: 631.45 MiB
      C [qnM]: 49.33 MiB
      S, T [2 x qmm]: 288.86 MiB
      P [aqMi]: 6.07 MiB
      BasisFunctions: 287.20 MiB
      Eigensolver: 0.00 MiB

Total number of cores used: 1

Number of atoms: 48
Number of atomic orbitals: 1256
Number of bands in calculation: 429
Number of valence electrons: 708
Bands to converge: occupied

... initialized

Initializing position-dependent things.

Density initialized from atomic densities
      .-----------------.  
     /|                 |  
    / |                 |  
   /  |                 |  
  /   |                 |  
 *    |                 |  
 |    |                 |  
 |    |                 |  
 |    |                 |  
 |    |                 |  
 |    | Ru    Ru        |  
 |    |                 |  
 |    RuB   Ru B        |  
 |    |                 |  
 |    B      B          |  
 | Mo |   Mo            |  
 |  Ni|   Ni    Ni      |  
 Mo   | Mo              |  
 | Ni | NNi   NNi   Ni  |  
 |    Ni    Ni    Ni    |  
 Ni   |Ni    Ni         |  
 |  NNi   NNi   NNi     |  
 | Ni | NNi   NNi   Ni  |  
 |    |                 |  
 Ni   NNi   NNi   Ni    |  
 |   Ni    Ni    Ni     |  
 |    |                 |  
 |    |                 |  
 |    |                 |  
 |    |                 |  
 |    |                 |  
 |    .-----------------.  
 |   /                 /   
 |  /                 /    
 | /                 /     
 |/                 /      
 *-----------------*       

Atomic positions and initial magnetic moments

Positions:
   0 Ni     1.244508    1.244508    8.000000    ( 0.0000,  0.0000,  0.0000)
   1 Ni     3.733524    1.244508    8.000000    ( 0.0000,  0.0000,  0.0000)
   2 Ni     6.222540    1.244508    8.000000    ( 0.0000,  0.0000,  0.0000)
   3 Ni     1.244508    3.733524    8.000000    ( 0.0000,  0.0000,  0.0000)
   4 Ni     3.733524    3.733524    8.000000    ( 0.0000,  0.0000,  0.0000)
   5 Ni     6.222540    3.733524    8.000000    ( 0.0000,  0.0000,  0.0000)
   6 Ni     1.244508    6.222540    8.000000    ( 0.0000,  0.0000,  0.0000)
   7 Ni     3.733524    6.222540    8.000000    ( 0.0000,  0.0000,  0.0000)
   8 Ni     6.222540    6.222540    8.000000    ( 0.0000,  0.0000,  0.0000)
   9 Ni     0.000000    0.000000    9.760000    ( 0.0000,  0.0000,  0.0000)
  10 Ni     2.489016    0.000000    9.760000    ( 0.0000,  0.0000,  0.0000)
  11 Ni     4.978032    0.000000    9.760000    ( 0.0000,  0.0000,  0.0000)
  12 Ni     0.000000    2.489016    9.760000    ( 0.0000,  0.0000,  0.0000)
  13 Ni     2.489016    2.489016    9.760000    ( 0.0000,  0.0000,  0.0000)
  14 Ni     4.978032    2.489016    9.760000    ( 0.0000,  0.0000,  0.0000)
  15 Ni     0.000000    4.978032    9.760000    ( 0.0000,  0.0000,  0.0000)
  16 Ni     2.489016    4.978032    9.760000    ( 0.0000,  0.0000,  0.0000)
  17 Ni     4.978032    4.978032    9.760000    ( 0.0000,  0.0000,  0.0000)
  18 Ni     1.244508    1.244508   11.520000    ( 0.0000,  0.0000,  0.0000)
  19 Ni     3.733524    1.244508   11.520000    ( 0.0000,  0.0000,  0.0000)
  20 Ni     6.222540    1.244508   11.520000    ( 0.0000,  0.0000,  0.0000)
  21 Ni     1.244508    3.733524   11.520000    ( 0.0000,  0.0000,  0.0000)
  22 Ni     3.733524    3.733524   11.520000    ( 0.0000,  0.0000,  0.0000)
  23 Ni     6.222540    3.733524   11.520000    ( 0.0000,  0.0000,  0.0000)
  24 Ni     1.244508    6.222540   11.520000    ( 0.0000,  0.0000,  0.0000)
  25 Ni     3.733524    6.222540   11.520000    ( 0.0000,  0.0000,  0.0000)
  26 Ni     6.222540    6.222540   11.520000    ( 0.0000,  0.0000,  0.0000)
  27 Ni     0.000000    0.000000   13.280000    ( 0.0000,  0.0000,  0.0000)
  28 Ni     2.489016    0.000000   13.280000    ( 0.0000,  0.0000,  0.0000)
  29 Ni     4.978032    0.000000   13.280000    ( 0.0000,  0.0000,  0.0000)
  30 Ni     0.000000    2.489016   13.280000    ( 0.0000,  0.0000,  0.0000)
  31 Ni     2.489016    2.489016   13.280000    ( 0.0000,  0.0000,  0.0000)
  32 Ni     4.978032    2.489016   13.280000    ( 0.0000,  0.0000,  0.0000)
  33 Ni     0.000000    4.978032   13.280000    ( 0.0000,  0.0000,  0.0000)
  34 Ni     2.489016    4.978032   13.280000    ( 0.0000,  0.0000,  0.0000)
  35 Ni     4.978032    4.978032   13.280000    ( 0.0000,  0.0000,  0.0000)
  36 Mo     0.000000    0.000000   15.480000    ( 0.0000,  0.0000,  0.0000)
  37 B      1.525000    1.525000   17.005000    ( 0.0000,  0.0000,  0.0000)
  38 Mo     0.000000    3.050000   15.480000    ( 0.0000,  0.0000,  0.0000)
  39 B      1.525000    4.575000   17.005000    ( 0.0000,  0.0000,  0.0000)
  40 Mo     3.050000    0.000000   15.480000    ( 0.0000,  0.0000,  0.0000)
  41 B      4.575000    1.525000   17.005000    ( 0.0000,  0.0000,  0.0000)
  42 Mo     3.050000    3.050000   15.480000    ( 0.0000,  0.0000,  0.0000)
  43 B      4.575000    4.575000   17.005000    ( 0.0000,  0.0000,  0.0000)
  44 Ru     1.761494    1.761494   18.805000    ( 0.0000,  0.0000,  0.0000)
  45 Ru     1.761494    4.161494   18.805000    ( 0.0000,  0.0000,  0.0000)
  46 Ru     4.161494    1.761494   18.805000    ( 0.0000,  0.0000,  0.0000)
  47 Ru     4.161494    4.161494   18.805000    ( 0.0000,  0.0000,  0.0000)

Unit cell:
           periodic     x           y           z      points  spacing
  1. axis:    yes    7.467048    0.000000    0.000000    36     0.2074
  2. axis:    yes    0.000000    7.467048    0.000000    36     0.2074
  3. axis:    yes    0.000000    0.000000   25.005000   124     0.2017

  Lengths:   7.467048   7.467048  25.005000
  Angles:   90.000000  90.000000  90.000000

Effective grid spacing dv^(1/3) = 0.2055

     iter     time        total  log10-change:
                         energy   eigst   dens
iter:   1 17:30:33  -877.761040        c
iter:   2 17:32:11 -2867.704589        c -1.00
iter:   3 17:34:02  -572.794187        c -0.48
iter:   4 17:35:38  -403.026841        c -1.21
iter:   5 17:37:15  -377.152582        c -1.45
iter:   6 17:39:25  -391.894903        c -1.52
iter:   7 17:41:00  -395.116663        c -1.49
iter:   8 17:42:58  -427.408823        c -1.36
iter:   9 17:44:57  -397.622168        c -1.47
iter:  10 17:46:40  -370.775891        c -1.58
iter:  11 17:48:12  -364.113177        c -1.73
iter:  12 17:49:35  -364.600750        c -1.74
iter:  13 17:50:58  -362.324871        c -1.80
iter:  14 17:52:27  -362.992200        c -1.84
iter:  15 17:54:40  -362.749748        c -1.84
iter:  16 17:56:59  -366.096228        c -1.87
iter:  17 17:59:05  -362.842095        c -1.88
iter:  18 18:01:19  -364.494613        c -1.94
iter:  19 18:02:35  -361.574469        c -2.04
iter:  20 18:04:38  -360.696427        c -2.02
iter:  21 18:06:42  -361.247619        c -2.12
iter:  22 18:08:23  -359.493563        c -2.05
iter:  23 18:09:54  -358.761312        c -2.18
iter:  24 18:11:45  -358.568125        c -2.47
iter:  25 18:13:18  -358.568544        c -2.49
iter:  26 18:15:02  -359.362052        c -2.57
iter:  27 18:16:30  -358.410435        c -2.33
iter:  28 18:18:27  -358.510737        c -2.79
iter:  29 18:20:16  -358.420423        c -2.61
iter:  30 18:21:49  -358.479428        c -2.78
iter:  31 18:24:13  -358.371990        c -2.70
iter:  32 18:25:47  -358.371430        c -2.96
iter:  33 18:27:18  -358.348537        c -3.00
iter:  34 18:28:59  -358.389165        c -3.07
iter:  35 18:30:55  -358.344715        c -2.94
iter:  36 18:32:27  -358.424913        c -3.10
iter:  37 18:33:53  -358.344998        c -2.79
iter:  38 18:36:03  -358.350707        c -2.99
iter:  39 18:37:41  -358.356892        c -2.99
iter:  40 18:39:40  -358.376636        c -3.03
iter:  41 18:41:52  -358.360121        c -2.85
iter:  42 18:43:45  -358.451008        c -3.15
iter:  43 18:45:30  -358.340375        c -2.90
iter:  44 18:46:55  -358.341111        c -3.16
iter:  45 18:49:14  -358.341686c       c -3.36
iter:  46 18:50:53  -358.360635        c -3.38
iter:  47 18:53:04  -358.338742        c -3.30
iter:  48 18:54:34  -358.347917        c -3.35
iter:  49 18:56:51  -358.349015        c -3.47
iter:  50 18:58:42  -358.341487        c -3.44
iter:  51 19:00:18  -358.342450        c -3.70
iter:  52 19:01:59  -358.343503c       c -3.75
iter:  53 19:03:47  -358.346325c       c -3.82
iter:  54 19:05:55  -358.340695c       c -3.75
iter:  55 19:07:36  -358.342898c       c -3.81
iter:  56 19:09:01  -358.344276c       c -3.43
iter:  57 19:10:33  -358.343228c       c -3.90
iter:  58 19:12:24  -358.343808c       c -4.08c

Converged after 58 iterations.

Dipole moment: (-14.038018, -14.038018, 0.747813) |e|*Ang

Energy contributions relative to reference atoms: (reference = -2422044.820423)

Kinetic:        +77.839141
Potential:      -47.468642
External:        +0.000000
XC:            -385.477046
Entropy (-ST):   -3.687369
Local:           -1.393577
SIC:             +0.000000
--------------------------
Free energy:   -360.187492
Extrapolated:  -358.343808

Showing only first 2 kpts
 Kpt  Band  Eigenvalues  Occupancy
  0   352      0.61635    1.25954
  0   353      0.61878    1.24816
  0   354      0.62491    1.21920
  0   355      0.63692    1.16135

  1   352      0.61546    1.26369
  1   353      0.61592    1.26155
  1   354      0.62273    1.22955
  1   355      0.63150    1.18761


Fermi level: 0.66947

No gap
No difference between direct/indirect transitions
Timing:                              incl.     excl.
-----------------------------------------------------------
Basic WFS set positions:             0.001     0.001   0.0% |
Basis functions set positions:       0.180     0.180   0.0% |
LCAO WFS Initialize:                 0.404     0.089   0.0% |
 Hamiltonian:                        0.315     0.000   0.0% |
  Atomic:                            0.159     0.002   0.0% |
   XC Correction:                    0.157     0.157   0.0% |
  Calculate atomic Hamiltonians:     0.025     0.025   0.0% |
  Communicate:                       0.000     0.000   0.0% |
  Hartree integrate/restrict:        0.009     0.009   0.0% |
  Initialize Hamiltonian:            0.001     0.001   0.0% |
  Poisson:                           0.072     0.005   0.0% |
   Communicate from 1D:              0.007     0.007   0.0% |
   Communicate from 2D:              0.007     0.007   0.0% |
   Communicate to 1D:                0.008     0.008   0.0% |
   Communicate to 2D:                0.010     0.010   0.0% |
   FFT 1D:                           0.015     0.015   0.0% |
   FFT 2D:                           0.021     0.021   0.0% |
  XC 3D grid:                        0.045     0.045   0.0% |
  vbar:                              0.004     0.004   0.0% |
P tci:                               3.693     3.693   0.1% |
SCF-cycle:                        6156.953     0.178   0.0% |
 Density:                         3069.948     0.001   0.0% |
  Atomic density matrices:           0.799     0.799   0.0% |
  Mix:                               7.260     7.260   0.1% |
  Multipole moments:                 0.016     0.016   0.0% |
  Normalize:                         0.006     0.006   0.0% |
  Pseudo density:                 3061.866     0.020   0.0% |
   Calculate density matrix:         9.229     9.229   0.1% |
   Construct density:             3052.399  3052.399  49.5% |-------------------|
   Symmetrize density:               0.219     0.219   0.0% |
 Hamiltonian:                       19.273     0.002   0.0% |
  Atomic:                            8.969     0.099   0.0% |
   XC Correction:                    8.870     8.870   0.1% |
  Calculate atomic Hamiltonians:     1.422     1.422   0.0% |
  Communicate:                       0.000     0.000   0.0% |
  Hartree integrate/restrict:        0.580     0.580   0.0% |
  Poisson:                           3.950     0.299   0.0% |
   Communicate from 1D:              0.454     0.454   0.0% |
   Communicate from 2D:              0.419     0.419   0.0% |
   Communicate to 1D:                0.381     0.381   0.0% |
   Communicate to 2D:                0.420     0.420   0.0% |
   FFT 1D:                           0.786     0.786   0.0% |
   FFT 2D:                           1.193     1.193   0.0% |
  XC 3D grid:                        3.771     3.771   0.1% |
  vbar:                              0.578     0.578   0.0% |
 LCAO eigensolver:                3067.554     1.107   0.0% |
  Calculate projections:            72.381    72.381   1.2% |
  DenseAtomicCorrection:           207.383   207.383   3.4% ||
  Distribute overlap matrix:         2.530     2.530   0.0% |
  Orbital Layouts:                2081.672  2081.672  33.7% |------------|
  Potential matrix:                647.676   647.676  10.5% |---|
  Sum over cells:                   54.805    54.805   0.9% |
ST tci:                              1.847     1.847   0.0% |
Set symmetry:                        0.000     0.000   0.0% |
TCI: Evaluate splines:               0.677     0.677   0.0% |
mktci:                               0.025     0.025   0.0% |
Other:                               4.548     4.548   0.1% |
-----------------------------------------------------------
Total:                                      6168.328 100.0%

Memory usage: 4.71 GiB
Date: Tue Mar  3 19:12:24 2026
