
  ___ ___ ___ _ _ _  
 |   |   |_  | | | | 
 | | | | | . | | | | 
 |__ |  _|___|_____|  25.7.0
 |___|_|             

User:   mikei@Z790-AORUS-ELITE-AX
Date:   Fri Feb 27 07:16:00 2026
Arch:   x86_64
Pid:    89048
CWD:    /home/mikei/Dokumenty/code/cemea/ocx
Python: 3.10.16
gpaw:   /home/mikei/.pyenv/versions/cemea-env/lib/python3.10/site-packages/gpaw
_gpaw:  /home/mikei/.pyenv/versions/cemea-env/lib/python3.10/site-packages/
        _gpaw.cpython-310-x86_64-linux-gnu.so
ase:    /home/mikei/.pyenv/versions/cemea-env/lib/python3.10/site-packages/ase (version 3.27.0)
numpy:  /home/mikei/.pyenv/versions/cemea-env/lib/python3.10/site-packages/numpy (version 2.2.6)
scipy:  /home/mikei/.pyenv/versions/cemea-env/lib/python3.10/site-packages/scipy (version 1.15.3)
libxc:  2.x.y
units:  Angstrom and eV
cores: 1
OpenMP: False
OMP_NUM_THREADS: 1

Input parameters:
  basis: dzp
  convergence: {density: 0.0001,
                eigenstates: 1e-05,
                energy: 1e-05}
  kpts: [4 4 1]
  mode: lcao

System changes: positions, numbers, cell, pbc, initial_charges, initial_magmoms 

Initialize ...

species:
  Ni:
    name: Nickel
    id: 1802175e8de9ea26d9f4394ec1a7d564
    Z: 28.0
    valence: 16
    core: 12
    charge: 0.0
    file: /home/mikei/.pyenv/versions/cemea-env/lib/python3.10/site-packages/gpaw_data/setups/Ni.LDA.gz
    compensation charges: {type: gauss,
                           rc: 0.36,
                           lmax: 2}
    cutoffs: {filter: 2.14,
              core: 1.98}
    projectors:
      #              energy  rcut
      - 4s(2.00)    -5.858   1.164
      - 3p(6.00)   -71.266   1.207
      - 4p(0.00)    -1.338   1.207
      - 3d(8.00)    -9.141   1.138
      -  s          21.353   1.164
      -  d          18.071   1.138
  
    # LCAO basis set for Ni:
    #   Name: dzp
    #   File: /home/mikei/.pyenv/versions/cemea-env/lib/python3.10/site-packages/gpaw_data/setups/Ni.dzp.basis.gz
    #   Number of radial functions: 9
    #   Number of spherical harmonics: 27
    #     l=0, rc=8.5156 Bohr: 4s-sz confined orbital
    #     l=1, rc=2.9375 Bohr: 3p-sz confined orbital
    #     l=1, rc=12.4062 Bohr: 4p-sz confined orbital
    #     l=2, rc=4.6875 Bohr: 3d-sz confined orbital
    #     l=0, rc=4.9688 Bohr: 4s-dz split-valence wave
    #     l=1, rc=2.0781 Bohr: 3p-dz split-valence wave
    #     l=1, rc=7.5469 Bohr: 4p-dz split-valence wave
    #     l=2, rc=2.9375 Bohr: 3d-dz split-valence wave
    #     l=1, rc=8.5156 Bohr: p-type Gaussian polarization
    #   Number of RI-basis functions 0

  Mo:
    name: Molybdenum
    id: ac24daaf086600a00ce6d19a74574df1
    Z: 42.0
    valence: 14
    core: 28
    charge: 0.0
    file: /home/mikei/.pyenv/versions/cemea-env/lib/python3.10/site-packages/gpaw_data/setups/Mo.LDA.gz
    compensation charges: {type: gauss,
                           rc: 0.38,
                           lmax: 2}
    cutoffs: {filter: 2.16,
              core: 1.42}
    projectors:
      #              energy  rcut
      - 4s(2.00)   -64.384   1.238
      - 5s(1.00)    -4.319   1.238
      - 4p(6.00)   -38.595   1.296
      - 5p(0.00)    -1.161   1.296
      - 4d(5.00)    -3.933   1.296
      -  d          23.278   1.296
  
    # LCAO basis set for Mo:
    #   Name: dzp
    #   File: /home/mikei/.pyenv/versions/cemea-env/lib/python3.10/site-packages/gpaw_data/setups/Mo.dzp.basis.gz
    #   Number of radial functions: 11
    #   Number of spherical harmonics: 29
    #     l=0, rc=3.5469 Bohr: 4s-sz confined orbital
    #     l=0, rc=10.0469 Bohr: 5s-sz confined orbital
    #     l=1, rc=4.0781 Bohr: 4p-sz confined orbital
    #     l=1, rc=14.0938 Bohr: 5p-sz confined orbital
    #     l=2, rc=7.2031 Bohr: 4d-sz confined orbital
    #     l=0, rc=2.1250 Bohr: 4s-dz split-valence wave
    #     l=0, rc=6.1250 Bohr: 5s-dz split-valence wave
    #     l=1, rc=2.5469 Bohr: 4p-dz split-valence wave
    #     l=1, rc=8.7656 Bohr: 5p-dz split-valence wave
    #     l=2, rc=4.2344 Bohr: 4d-dz split-valence wave
    #     l=1, rc=10.0469 Bohr: p-type Gaussian polarization
    #   Number of RI-basis functions 0

  C:
    name: Carbon
    id: d60576a1f549371a163e72552ca58787
    Z: 6.0
    valence: 4
    core: 2
    charge: 0.0
    file: /home/mikei/.pyenv/versions/cemea-env/lib/python3.10/site-packages/gpaw_data/setups/C.LDA.gz
    compensation charges: {type: gauss,
                           rc: 0.20,
                           lmax: 2}
    cutoffs: {filter: 1.14,
              core: 1.14}
    projectors:
      #              energy  rcut
      - 2s(2.00)   -13.639   0.635
      - 2p(2.00)    -5.414   0.635
      -  s          13.573   0.635
      -  p          21.797   0.635
      -  d           0.000   0.635
  
    # LCAO basis set for C:
    #   Name: dzp
    #   File: /home/mikei/.pyenv/versions/cemea-env/lib/python3.10/site-packages/gpaw_data/setups/C.dzp.basis.gz
    #   Number of radial functions: 5
    #   Number of spherical harmonics: 13
    #     l=0, rc=5.5469 Bohr: 2s-sz confined orbital
    #     l=1, rc=6.6719 Bohr: 2p-sz confined orbital
    #     l=0, rc=3.0312 Bohr: 2s-dz split-valence wave
    #     l=1, rc=3.7500 Bohr: 2p-dz split-valence wave
    #     l=2, rc=6.6719 Bohr: d-type Gaussian polarization
    #   Number of RI-basis functions 0

  Pt:
    name: Platinum
    id: 5a6399afde4becbffda6f57f3efd9534
    Z: 78.0
    valence: 16
    core: 62
    charge: 0.0
    file: /home/mikei/.pyenv/versions/cemea-env/lib/python3.10/site-packages/gpaw_data/setups/Pt.LDA.gz
    compensation charges: {type: gauss,
                           rc: 0.41,
                           lmax: 2}
    cutoffs: {filter: 2.26,
              core: 2.26}
    projectors:
      #              energy  rcut
      - 6s(1.00)    -5.930   1.307
      - 5p(6.00)   -56.318   1.371
      - 6p(0.00)    -0.962   1.371
      - 5d(9.00)    -6.387   1.307
      -  s          21.281   1.307
      -  d          20.825   1.307
  
    # LCAO basis set for Pt:
    #   Name: dzp
    #   File: /home/mikei/.pyenv/versions/cemea-env/lib/python3.10/site-packages/gpaw_data/setups/Pt.dzp.basis.gz
    #   Number of radial functions: 9
    #   Number of spherical harmonics: 27
    #     l=0, rc=8.5938 Bohr: 6s-sz confined orbital
    #     l=1, rc=3.5781 Bohr: 5p-sz confined orbital
    #     l=1, rc=13.6250 Bohr: 6p-sz confined orbital
    #     l=2, rc=6.0938 Bohr: 5d-sz confined orbital
    #     l=0, rc=5.0625 Bohr: 6s-dz split-valence wave
    #     l=1, rc=2.4219 Bohr: 5p-dz split-valence wave
    #     l=1, rc=8.3281 Bohr: 6p-dz split-valence wave
    #     l=2, rc=3.6406 Bohr: 5d-dz split-valence wave
    #     l=1, rc=8.5938 Bohr: p-type Gaussian polarization
    #   Number of RI-basis functions 0

Reference energy: -4371442.161243  # eV

Spin-paired calculation

Convergence criteria:
 Maximum [total energy] change in last 3 cyles: 1e-05 eV / valence electron
 Maximum integral of absolute [dens]ity change: 0.0001 electrons / valence electron
 Maximum integral of absolute [eigenst]ate change: 1e-05 eV^2 / valence electron
 Maximum number of scf [iter]ations: 333
 (Square brackets indicate name in SCF output, whereas a 'c' in
 the SCF output indicates the quantity has converged.)

Symmetries present (total): 1

  ( 1  0  0)
  ( 0  1  0)
  ( 0  0  1)

16 k-points: 4 x 4 x 1 Monkhorst-Pack grid
8 k-points in the irreducible part of the Brillouin zone
       k-points in crystal coordinates                weights
   0:     0.12500000   -0.37500000    0.00000000          2/16
   1:     0.12500000   -0.12500000    0.00000000          2/16
   2:     0.12500000    0.12500000    0.00000000          2/16
   3:     0.12500000    0.37500000    0.00000000          2/16
   4:     0.37500000   -0.37500000    0.00000000          2/16
   5:     0.37500000   -0.12500000    0.00000000          2/16
   6:     0.37500000    0.12500000    0.00000000          2/16
   7:     0.37500000    0.37500000    0.00000000          2/16

Wave functions: LCAO
  Diagonalizer: Serial LAPACK
  Atomic Correction: dense with blas
  Data-type: complex
 

Occupation numbers: Fermi-Dirac:
  width: 0.1000  # eV
 

Eigensolver
   LCAO using direct dense diagonalizer 

Densities:
  Coarse grid: 32*32*132 grid
  Fine grid: 64*64*264 grid
  Total Charge: 0.000000 

Density mixing:
  Method: separate
  Backend: pulay
  Linear mixing parameter: 0.05
  old densities: 5
  Damping of long wavelength oscillations: 50 

Hamiltonian:
  XC and Coulomb potentials evaluated on a 64*64*264 grid
  Using the LDA Exchange-Correlation functional
  Interpolation: tri-quintic (5. degree polynomial)
  Poisson solver: FastPoissonSolver using
    Stencil: 8*3+1=25 point O(h^6) finite-difference Laplacian
    FFT axes: [np.int64(0), np.int64(1), np.int64(2)]
    FST axes: []
 

Memory estimate:
  Process memory now: 4818.40 MiB
  Calculator: 1079.75 MiB
    Density: 218.16 MiB
      Arrays: 26.81 MiB
      Localized functions: 181.03 MiB
      Mixer: 10.31 MiB
    Hamiltonian: 30.72 MiB
      Arrays: 17.53 MiB
      XC: 0.00 MiB
      Poisson: 0.00 MiB
      vbar: 13.18 MiB
    Wavefunctions: 830.88 MiB
      C [qnM]: 77.42 MiB
      S, T [2 x qmm]: 454.22 MiB
      P [aqMi]: 9.53 MiB
      BasisFunctions: 289.70 MiB
      Eigensolver: 0.00 MiB

Total number of cores used: 1

Number of atoms: 52
Number of atomic orbitals: 1364
Number of bands in calculation: 465
Number of valence electrons: 768
Bands to converge: occupied

... initialized

Initializing position-dependent things.

Density initialized from atomic densities
                                         
                                         
                                         
                                         
                                         
                Pt    Pt                 
               Pto  Pt    Mo             
                                         
             Mo C      Mo C              
                                         
         Mo         Mo                   
             C         C                 
       Mo       NMo   Ni    Ni           
                                         
           Ni    Ni    NNi   Ni          
       Ni   NNi   NNi   Ni               
        Ni    Ni    Ni                   
                   Ni    Ni    Ni        
               Ni    Ni    Ni            
           Ni    Ni    Ni                
                Ni    Ni    Ni           
           Ni    Ni     Ni               
       Ni    Ni    Ni                    
                                         
                                         
                                         
                                         

Atomic positions and initial magnetic moments

Positions:
   0 Ni     0.000000    0.000000    8.000000    ( 0.0000,  0.0000,  0.0000)
   1 Ni     2.489016    0.000000    8.000000    ( 0.0000,  0.0000,  0.0000)
   2 Ni     4.978032    0.000000    8.000000    ( 0.0000,  0.0000,  0.0000)
   3 Ni     1.244508    2.155551    8.000000    ( 0.0000,  0.0000,  0.0000)
   4 Ni     3.733524    2.155551    8.000000    ( 0.0000,  0.0000,  0.0000)
   5 Ni     6.222540    2.155551    8.000000    ( 0.0000,  0.0000,  0.0000)
   6 Ni     2.489016    4.311102    8.000000    ( 0.0000,  0.0000,  0.0000)
   7 Ni     4.978032    4.311102    8.000000    ( 0.0000,  0.0000,  0.0000)
   8 Ni     7.467048    4.311102    8.000000    ( 0.0000,  0.0000,  0.0000)
   9 Ni     1.244508    0.718517   10.032273    ( 0.0000,  0.0000,  0.0000)
  10 Ni     3.733524    0.718517   10.032273    ( 0.0000,  0.0000,  0.0000)
  11 Ni     6.222540    0.718517   10.032273    ( 0.0000,  0.0000,  0.0000)
  12 Ni     2.489016    2.874068   10.032273    ( 0.0000,  0.0000,  0.0000)
  13 Ni     4.978032    2.874068   10.032273    ( 0.0000,  0.0000,  0.0000)
  14 Ni     7.467048    2.874068   10.032273    ( 0.0000,  0.0000,  0.0000)
  15 Ni     3.733524    5.029619   10.032273    ( 0.0000,  0.0000,  0.0000)
  16 Ni     6.222540    5.029619   10.032273    ( 0.0000,  0.0000,  0.0000)
  17 Ni     8.711556    5.029619   10.032273    ( 0.0000,  0.0000,  0.0000)
  18 Ni     0.000000    1.437034   12.064546    ( 0.0000,  0.0000,  0.0000)
  19 Ni     2.489016    1.437034   12.064546    ( 0.0000,  0.0000,  0.0000)
  20 Ni     4.978032    1.437034   12.064546    ( 0.0000,  0.0000,  0.0000)
  21 Ni     1.244508    3.592585   12.064546    ( 0.0000,  0.0000,  0.0000)
  22 Ni     3.733524    3.592585   12.064546    ( 0.0000,  0.0000,  0.0000)
  23 Ni     6.222540    3.592585   12.064546    ( 0.0000,  0.0000,  0.0000)
  24 Ni     2.489016    5.748136   12.064546    ( 0.0000,  0.0000,  0.0000)
  25 Ni     4.978032    5.748136   12.064546    ( 0.0000,  0.0000,  0.0000)
  26 Ni     7.467048    5.748136   12.064546    ( 0.0000,  0.0000,  0.0000)
  27 Ni     0.000000    0.000000   14.096819    ( 0.0000,  0.0000,  0.0000)
  28 Ni     2.489016    0.000000   14.096819    ( 0.0000,  0.0000,  0.0000)
  29 Ni     4.978032    0.000000   14.096819    ( 0.0000,  0.0000,  0.0000)
  30 Ni     1.244508    2.155551   14.096819    ( 0.0000,  0.0000,  0.0000)
  31 Ni     3.733524    2.155551   14.096819    ( 0.0000,  0.0000,  0.0000)
  32 Ni     6.222540    2.155551   14.096819    ( 0.0000,  0.0000,  0.0000)
  33 Ni     2.489016    4.311102   14.096819    ( 0.0000,  0.0000,  0.0000)
  34 Ni     4.978032    4.311102   14.096819    ( 0.0000,  0.0000,  0.0000)
  35 Ni     7.467048    4.311102   14.096819    ( 0.0000,  0.0000,  0.0000)
  36 Mo     0.000000    0.000000   16.296819    ( 0.0000,  0.0000,  0.0000)
  37 Mo     2.060000    2.060000   18.356819    ( 0.0000,  0.0000,  0.0000)
  38 C      2.060000    2.060000   16.296819    ( 0.0000,  0.0000,  0.0000)
  39 Mo     0.000000    4.120000   16.296819    ( 0.0000,  0.0000,  0.0000)
  40 Mo     2.060000    6.180000   18.356819    ( 0.0000,  0.0000,  0.0000)
  41 C      2.060000    6.180000   16.296819    ( 0.0000,  0.0000,  0.0000)
  42 Mo     4.120000    0.000000   16.296819    ( 0.0000,  0.0000,  0.0000)
  43 Mo     6.180000    2.060000   18.356819    ( 0.0000,  0.0000,  0.0000)
  44 C      6.180000    2.060000   16.296819    ( 0.0000,  0.0000,  0.0000)
  45 Mo     4.120000    4.120000   16.296819    ( 0.0000,  0.0000,  0.0000)
  46 Mo     6.180000    6.180000   18.356819    ( 0.0000,  0.0000,  0.0000)
  47 C      6.180000    6.180000   16.296819    ( 0.0000,  0.0000,  0.0000)
  48 Pt     2.691821    1.679162   20.156819    ( 0.0000,  0.0000,  0.0000)
  49 Pt     2.691821    4.079162   20.156819    ( 0.0000,  0.0000,  0.0000)
  50 Pt     5.091821    1.679162   20.156819    ( 0.0000,  0.0000,  0.0000)
  51 Pt     5.091821    4.079162   20.156819    ( 0.0000,  0.0000,  0.0000)

Unit cell:
           periodic     x           y           z      points  spacing
  1. axis:    yes    7.467048    0.000000    0.000000    32     0.2021
  2. axis:    yes    3.733524    6.466653    0.000000    32     0.2021
  3. axis:    yes    0.000000    0.000000   26.356819   132     0.1997

  Lengths:   7.467048   7.467048  26.356819
  Angles:   90.000000  90.000000  60.000000

Effective grid spacing dv^(1/3) = 0.2112

     iter     time        total  log10-change:
                         energy   eigst   dens
iter:   1 07:17:55 -1465.205978        c
iter:   2 07:21:28 -8636.186942        c -0.83
iter:   3 07:25:05  -507.778925        c -0.36
iter:   4 07:27:43  -527.644170        c -1.35
iter:   5 07:30:18  -585.921563        c -1.18
iter:   6 07:33:17  -471.205203        c -1.30
iter:   7 07:36:09  -436.159191        c -1.51
iter:   8 07:39:23  -412.537368        c -1.62
iter:   9 07:42:23  -493.337110        c -1.62
iter:  10 07:45:21  -411.129058        c -1.28
iter:  11 07:48:09  -485.440679        c -1.64
iter:  12 07:51:11  -435.718816        c -1.48
iter:  13 07:53:58  -513.760438        c -1.61
iter:  14 07:57:27  -432.243544        c -1.35
iter:  15 08:01:30  -446.297513        c -1.68
iter:  16 08:05:03  -443.791693        c -1.48
iter:  17 08:08:38  -424.042938        c -1.65
iter:  18 08:12:04  -413.206511        c -1.75
iter:  19 08:15:54  -412.895398        c -1.87
iter:  20 08:20:00  -403.454350        c -1.77
iter:  21 08:24:03  -409.482515        c -2.09
iter:  22 08:27:55  -406.583054        c -1.96
iter:  23 08:32:06  -403.170299        c -1.99
iter:  24 08:36:06  -412.112167        c -2.13
iter:  25 08:40:01  -408.615340        c -1.85
iter:  26 08:44:01  -403.568362        c -2.00
iter:  27 08:47:57  -402.475555        c -2.12
iter:  28 08:51:10  -402.163775        c -2.26
iter:  29 08:55:58  -403.042801        c -2.50
iter:  30 09:00:31  -401.836094        c -2.28
iter:  31 09:04:18  -402.130844        c -2.61
iter:  32 09:07:33  -402.496799        c -2.45
iter:  33 09:11:03  -401.828430        c -2.33
iter:  34 09:14:40  -401.656367        c -2.66
iter:  35 09:17:52  -401.596470        c -2.86
iter:  36 09:21:19  -401.637517        c -2.99
iter:  37 09:24:46  -401.708329        c -2.95
iter:  38 09:27:47  -401.590994        c -2.71
iter:  39 09:30:55  -401.702746        c -2.96
iter:  40 09:33:57  -401.561151        c -2.82
iter:  41 09:37:34  -401.551818        c -3.12
iter:  42 09:40:57  -401.566840        c -3.27
iter:  43 09:43:30  -401.548923        c -3.28
iter:  44 09:46:22  -401.584901        c -3.21
iter:  45 09:49:57  -401.563550        c -3.14
iter:  46 09:52:44  -401.560921        c -3.15
iter:  47 09:56:00  -401.547963        c -3.33
iter:  48 09:59:17  -401.549826        c -3.58
iter:  49 10:02:23  -401.551500c       c -3.41
iter:  50 10:05:34  -401.546029c       c -3.55
iter:  51 10:08:56  -401.554453        c -3.60
iter:  52 10:12:09  -401.545374        c -3.48
iter:  53 10:15:22  -401.547809        c -3.52
iter:  54 10:18:08  -401.548144c       c -3.68
iter:  55 10:21:08  -401.548632c       c -3.68
iter:  56 10:24:37  -401.547081c       c -3.65
iter:  57 10:27:38  -401.546039c       c -3.73
iter:  58 10:30:52  -401.555680        c -3.55
iter:  59 10:34:02  -401.545965        c -3.47
iter:  60 10:37:22  -401.548811        c -3.83
iter:  61 10:41:10  -401.545233c       c -3.69
iter:  62 10:44:26  -401.546931c       c -3.88
iter:  63 10:47:42  -401.547501c       c -3.91
iter:  64 10:50:36  -401.544198c       c -3.84
iter:  65 10:53:18  -401.547148c       c -3.79
iter:  66 10:56:08  -401.548691c       c -3.93
iter:  67 10:58:34  -401.549256c       c -3.57
iter:  68 11:01:16  -401.544989c       c -3.77
iter:  69 11:04:19  -401.545401c       c -3.92
iter:  70 11:06:46  -401.545570c       c -4.13c

Converged after 70 iterations.

Dipole moment: (-13.607683, 21.536140, 0.038329) |e|*Ang

Energy contributions relative to reference atoms: (reference = -4371442.161243)

Kinetic:       +355.762101
Potential:     -298.832071
External:        +0.000000
XC:            -455.129281
Entropy (-ST):   -3.540996
Local:           -1.575820
SIC:             +0.000000
--------------------------
Free energy:   -403.316068
Extrapolated:  -401.545570

Showing only first 2 kpts
 Kpt  Band  Eigenvalues  Occupancy
  0   382      1.69653    1.02010
  0   383      1.71103    0.94765
  0   384      1.72896    0.85891
  0   385      1.73356    0.83643

  1   382      1.61803    1.39069
  1   383      1.62779    1.34857
  1   384      1.63529    1.31520
  1   385      1.64969    1.24894


Fermi level: 1.70055

No gap
No difference between direct/indirect transitions
Timing:                              incl.     excl.
-----------------------------------------------------------
Basic WFS set positions:             0.000     0.000   0.0% |
Basis functions set positions:       0.194     0.194   0.0% |
LCAO WFS Initialize:                 0.419     0.105   0.0% |
 Hamiltonian:                        0.314     0.000   0.0% |
  Atomic:                            0.173     0.002   0.0% |
   XC Correction:                    0.171     0.171   0.0% |
  Calculate atomic Hamiltonians:     0.027     0.027   0.0% |
  Communicate:                       0.000     0.000   0.0% |
  Hartree integrate/restrict:        0.011     0.011   0.0% |
  Initialize Hamiltonian:            0.001     0.001   0.0% |
  Poisson:                           0.061     0.004   0.0% |
   Communicate from 1D:              0.006     0.006   0.0% |
   Communicate from 2D:              0.007     0.007   0.0% |
   Communicate to 1D:                0.007     0.007   0.0% |
   Communicate to 2D:                0.010     0.010   0.0% |
   FFT 1D:                           0.009     0.009   0.0% |
   FFT 2D:                           0.018     0.018   0.0% |
  XC 3D grid:                        0.037     0.037   0.0% |
  vbar:                              0.004     0.004   0.0% |
P tci:                               5.885     5.885   0.0% |
SCF-cycle:                       13829.885     0.436   0.0% |
 Density:                         5909.414     0.005   0.0% |
  Atomic density matrices:           1.587     1.587   0.0% |
  Mix:                               9.860     9.860   0.1% |
  Multipole moments:                 0.021     0.021   0.0% |
  Normalize:                         0.007     0.007   0.0% |
  Pseudo density:                 5897.935     0.267   0.0% |
   Calculate density matrix:        19.346    19.346   0.1% |
   Construct density:             5878.320  5878.320  42.5% |----------------|
   Symmetrize density:               0.001     0.001   0.0% |
 Hamiltonian:                       24.518     0.004   0.0% |
  Atomic:                           12.285     0.145   0.0% |
   XC Correction:                   12.139    12.139   0.1% |
  Calculate atomic Hamiltonians:     1.952     1.952   0.0% |
  Communicate:                       0.000     0.000   0.0% |
  Hartree integrate/restrict:        0.794     0.794   0.0% |
  Poisson:                           4.297     0.407   0.0% |
   Communicate from 1D:              0.520     0.520   0.0% |
   Communicate from 2D:              0.447     0.447   0.0% |
   Communicate to 1D:                0.494     0.494   0.0% |
   Communicate to 2D:                0.603     0.603   0.0% |
   FFT 1D:                           0.538     0.538   0.0% |
   FFT 2D:                           1.287     1.287   0.0% |
  XC 3D grid:                        4.235     4.235   0.0% |
  vbar:                              0.951     0.951   0.0% |
 LCAO eigensolver:                7895.517     2.808   0.0% |
  Calculate projections:           129.996   129.996   0.9% |
  DenseAtomicCorrection:           433.765   433.765   3.1% ||
  Distribute overlap matrix:         4.970     4.970   0.0% |
  Orbital Layouts:                6106.610  6106.610  44.1% |-----------------|
  Potential matrix:                973.360   973.360   7.0% |--|
  Sum over cells:                  244.007   244.007   1.8% ||
ST tci:                              2.568     2.568   0.0% |
Set symmetry:                        0.000     0.000   0.0% |
TCI: Evaluate splines:               0.612     0.612   0.0% |
mktci:                               0.033     0.033   0.0% |
Other:                               7.274     7.274   0.1% |
-----------------------------------------------------------
Total:                                     13846.871 100.0%

Memory usage: 4.71 GiB
Date: Fri Feb 27 11:06:46 2026
