
  ___ ___ ___ _ _ _  
 |   |   |_  | | | | 
 | | | | | . | | | | 
 |__ |  _|___|_____|  25.7.0
 |___|_|             

User:   mikei@Z790-AORUS-ELITE-AX
Date:   Fri Mar  6 10:21:13 2026
Arch:   x86_64
Pid:    89048
CWD:    /home/mikei/Dokumenty/code/cemea/ocx
Python: 3.10.16
gpaw:   /home/mikei/.pyenv/versions/cemea-env/lib/python3.10/site-packages/gpaw
_gpaw:  /home/mikei/.pyenv/versions/cemea-env/lib/python3.10/site-packages/
        _gpaw.cpython-310-x86_64-linux-gnu.so
ase:    /home/mikei/.pyenv/versions/cemea-env/lib/python3.10/site-packages/ase (version 3.27.0)
numpy:  /home/mikei/.pyenv/versions/cemea-env/lib/python3.10/site-packages/numpy (version 2.2.6)
scipy:  /home/mikei/.pyenv/versions/cemea-env/lib/python3.10/site-packages/scipy (version 1.15.3)
libxc:  2.x.y
units:  Angstrom and eV
cores: 1
OpenMP: False
OMP_NUM_THREADS: 1

Input parameters:
  basis: dzp
  convergence: {density: 0.0001,
                eigenstates: 1e-05,
                energy: 1e-05}
  kpts: [4 4 1]
  mode: lcao

System changes: positions, numbers, cell, pbc, initial_charges, initial_magmoms 

Initialize ...

species:
  Ni:
    name: Nickel
    id: 1802175e8de9ea26d9f4394ec1a7d564
    Z: 28.0
    valence: 16
    core: 12
    charge: 0.0
    file: /home/mikei/.pyenv/versions/cemea-env/lib/python3.10/site-packages/gpaw_data/setups/Ni.LDA.gz
    compensation charges: {type: gauss,
                           rc: 0.36,
                           lmax: 2}
    cutoffs: {filter: 2.14,
              core: 1.98}
    projectors:
      #              energy  rcut
      - 4s(2.00)    -5.858   1.164
      - 3p(6.00)   -71.266   1.207
      - 4p(0.00)    -1.338   1.207
      - 3d(8.00)    -9.141   1.138
      -  s          21.353   1.164
      -  d          18.071   1.138
  
    # LCAO basis set for Ni:
    #   Name: dzp
    #   File: /home/mikei/.pyenv/versions/cemea-env/lib/python3.10/site-packages/gpaw_data/setups/Ni.dzp.basis.gz
    #   Number of radial functions: 9
    #   Number of spherical harmonics: 27
    #     l=0, rc=8.5156 Bohr: 4s-sz confined orbital
    #     l=1, rc=2.9375 Bohr: 3p-sz confined orbital
    #     l=1, rc=12.4062 Bohr: 4p-sz confined orbital
    #     l=2, rc=4.6875 Bohr: 3d-sz confined orbital
    #     l=0, rc=4.9688 Bohr: 4s-dz split-valence wave
    #     l=1, rc=2.0781 Bohr: 3p-dz split-valence wave
    #     l=1, rc=7.5469 Bohr: 4p-dz split-valence wave
    #     l=2, rc=2.9375 Bohr: 3d-dz split-valence wave
    #     l=1, rc=8.5156 Bohr: p-type Gaussian polarization
    #   Number of RI-basis functions 0

  Mo:
    name: Molybdenum
    id: ac24daaf086600a00ce6d19a74574df1
    Z: 42.0
    valence: 14
    core: 28
    charge: 0.0
    file: /home/mikei/.pyenv/versions/cemea-env/lib/python3.10/site-packages/gpaw_data/setups/Mo.LDA.gz
    compensation charges: {type: gauss,
                           rc: 0.38,
                           lmax: 2}
    cutoffs: {filter: 2.16,
              core: 1.42}
    projectors:
      #              energy  rcut
      - 4s(2.00)   -64.384   1.238
      - 5s(1.00)    -4.319   1.238
      - 4p(6.00)   -38.595   1.296
      - 5p(0.00)    -1.161   1.296
      - 4d(5.00)    -3.933   1.296
      -  d          23.278   1.296
  
    # LCAO basis set for Mo:
    #   Name: dzp
    #   File: /home/mikei/.pyenv/versions/cemea-env/lib/python3.10/site-packages/gpaw_data/setups/Mo.dzp.basis.gz
    #   Number of radial functions: 11
    #   Number of spherical harmonics: 29
    #     l=0, rc=3.5469 Bohr: 4s-sz confined orbital
    #     l=0, rc=10.0469 Bohr: 5s-sz confined orbital
    #     l=1, rc=4.0781 Bohr: 4p-sz confined orbital
    #     l=1, rc=14.0938 Bohr: 5p-sz confined orbital
    #     l=2, rc=7.2031 Bohr: 4d-sz confined orbital
    #     l=0, rc=2.1250 Bohr: 4s-dz split-valence wave
    #     l=0, rc=6.1250 Bohr: 5s-dz split-valence wave
    #     l=1, rc=2.5469 Bohr: 4p-dz split-valence wave
    #     l=1, rc=8.7656 Bohr: 5p-dz split-valence wave
    #     l=2, rc=4.2344 Bohr: 4d-dz split-valence wave
    #     l=1, rc=10.0469 Bohr: p-type Gaussian polarization
    #   Number of RI-basis functions 0

  B:
    name: Boron
    id: 02e2e0e88ef95f403158802f6b0f4231
    Z: 5.0
    valence: 3
    core: 2
    charge: 0.0
    file: /home/mikei/.pyenv/versions/cemea-env/lib/python3.10/site-packages/gpaw_data/setups/B.LDA.gz
    compensation charges: {type: gauss,
                           rc: 0.20,
                           lmax: 2}
    cutoffs: {filter: 1.14,
              core: 1.42}
    projectors:
      #              energy  rcut
      - 2s(2.00)    -9.383   0.635
      - 2p(1.00)    -3.714   0.635
      -  s          17.828   0.635
      -  p          23.498   0.635
      -  d           0.000   0.635
  
    # LCAO basis set for B:
    #   Name: dzp
    #   File: /home/mikei/.pyenv/versions/cemea-env/lib/python3.10/site-packages/gpaw_data/setups/B.dzp.basis.gz
    #   Number of radial functions: 5
    #   Number of spherical harmonics: 13
    #     l=0, rc=6.6719 Bohr: 2s-sz confined orbital
    #     l=1, rc=8.2188 Bohr: 2p-sz confined orbital
    #     l=0, rc=3.7500 Bohr: 2s-dz split-valence wave
    #     l=1, rc=4.6094 Bohr: 2p-dz split-valence wave
    #     l=2, rc=8.2188 Bohr: d-type Gaussian polarization
    #   Number of RI-basis functions 0

  Au:
    name: Gold
    id: a44207148b704df7bec07bf25e8feca8
    Z: 79.0
    valence: 11
    core: 68
    charge: 0.0
    file: /home/mikei/.pyenv/versions/cemea-env/lib/python3.10/site-packages/gpaw_data/setups/Au.LDA.gz
    compensation charges: {type: gauss,
                           rc: 0.42,
                           lmax: 2}
    cutoffs: {filter: 2.33,
              core: 2.81}
    projectors:
      #              energy  rcut
      - 6s(1.00)    -6.048   1.323
      - 6p(0.00)    -0.888   1.323
      - 5d(10.00)    -7.129   1.323
      -  s          21.163   1.323
      -  p          26.323   1.323
      -  d          20.082   1.323
  
    # LCAO basis set for Au:
    #   Name: dzp
    #   File: /home/mikei/.pyenv/versions/cemea-env/lib/python3.10/site-packages/gpaw_data/setups/Au.dzp.basis.gz
    #   Number of radial functions: 5
    #   Number of spherical harmonics: 15
    #     l=0, rc=8.5938 Bohr: 6s-sz confined orbital
    #     l=2, rc=5.9219 Bohr: 5d-sz confined orbital
    #     l=0, rc=4.9844 Bohr: 6s-dz split-valence wave
    #     l=2, rc=3.5156 Bohr: 5d-dz split-valence wave
    #     l=1, rc=8.5938 Bohr: p-type Gaussian polarization
    #   Number of RI-basis functions 0

Reference energy: -3994805.452343  # eV

Spin-paired calculation

Convergence criteria:
 Maximum [total energy] change in last 3 cyles: 1e-05 eV / valence electron
 Maximum integral of absolute [dens]ity change: 0.0001 electrons / valence electron
 Maximum integral of absolute [eigenst]ate change: 1e-05 eV^2 / valence electron
 Maximum number of scf [iter]ations: 333
 (Square brackets indicate name in SCF output, whereas a 'c' in
 the SCF output indicates the quantity has converged.)

Symmetries present (total): 1

  ( 1  0  0)
  ( 0  1  0)
  ( 0  0  1)

16 k-points: 4 x 4 x 1 Monkhorst-Pack grid
8 k-points in the irreducible part of the Brillouin zone
       k-points in crystal coordinates                weights
   0:     0.12500000   -0.37500000    0.00000000          2/16
   1:     0.12500000   -0.12500000    0.00000000          2/16
   2:     0.12500000    0.12500000    0.00000000          2/16
   3:     0.12500000    0.37500000    0.00000000          2/16
   4:     0.37500000   -0.37500000    0.00000000          2/16
   5:     0.37500000   -0.12500000    0.00000000          2/16
   6:     0.37500000    0.12500000    0.00000000          2/16
   7:     0.37500000    0.37500000    0.00000000          2/16

Wave functions: LCAO
  Diagonalizer: Serial LAPACK
  Atomic Correction: dense with blas
  Data-type: complex
 

Occupation numbers: Fermi-Dirac:
  width: 0.1000  # eV
 

Eigensolver
   LCAO using direct dense diagonalizer 

Densities:
  Coarse grid: 32*32*128 grid
  Fine grid: 64*64*256 grid
  Total Charge: 0.000000 

Density mixing:
  Method: separate
  Backend: pulay
  Linear mixing parameter: 0.05
  old densities: 5
  Damping of long wavelength oscillations: 50 

Hamiltonian:
  XC and Coulomb potentials evaluated on a 64*64*256 grid
  Using the LDA Exchange-Correlation functional
  Interpolation: tri-quintic (5. degree polynomial)
  Poisson solver: FastPoissonSolver using
    Stencil: 8*3+1=25 point O(h^6) finite-difference Laplacian
    FFT axes: [np.int64(0), np.int64(1), np.int64(2)]
    FST axes: []
 

Memory estimate:
  Process memory now: 4818.40 MiB
  Calculator: 883.78 MiB
    Density: 196.43 MiB
      Arrays: 26.00 MiB
      Localized functions: 160.43 MiB
      Mixer: 10.00 MiB
    Hamiltonian: 29.08 MiB
      Arrays: 17.00 MiB
      XC: 0.00 MiB
      Poisson: 0.00 MiB
      vbar: 12.08 MiB
    Wavefunctions: 658.26 MiB
      C [qnM]: 61.08 MiB
      S, T [2 x qmm]: 351.56 MiB
      P [aqMi]: 7.73 MiB
      BasisFunctions: 237.89 MiB
      Eigensolver: 0.00 MiB

Total number of cores used: 1

Number of atoms: 48
Number of atomic orbitals: 1200
Number of bands in calculation: 417
Number of valence electrons: 688
Bands to converge: occupied

... initialized

Initializing position-dependent things.

Density initialized from atomic densities
                                         
                                         
                                         
                                         
                                         
                Au   Au                  
              Au    Au                   
              B      B                   
            B      B                     
         Mo     Mo                       
                                         
       Mo      Moi    Ni    Ni           
                                         
           Ni    NNi   NNi   Ni          
       Ni   NNi   NNi   Ni               
                                         
        Ni    Ni   NNi   Ni    Ni        
               Ni    Ni    Ni            
           Ni    Ni    Ni                
                Ni    Ni    Ni           
           Ni     Ni    Ni               
       Ni    Ni    Ni                    
                                         
                                         
                                         
                                         

Atomic positions and initial magnetic moments

Positions:
   0 Ni     0.000000    0.000000    8.000000    ( 0.0000,  0.0000,  0.0000)
   1 Ni     2.489016    0.000000    8.000000    ( 0.0000,  0.0000,  0.0000)
   2 Ni     4.978032    0.000000    8.000000    ( 0.0000,  0.0000,  0.0000)
   3 Ni     1.244508    2.155551    8.000000    ( 0.0000,  0.0000,  0.0000)
   4 Ni     3.733524    2.155551    8.000000    ( 0.0000,  0.0000,  0.0000)
   5 Ni     6.222540    2.155551    8.000000    ( 0.0000,  0.0000,  0.0000)
   6 Ni     2.489016    4.311102    8.000000    ( 0.0000,  0.0000,  0.0000)
   7 Ni     4.978032    4.311102    8.000000    ( 0.0000,  0.0000,  0.0000)
   8 Ni     7.467048    4.311102    8.000000    ( 0.0000,  0.0000,  0.0000)
   9 Ni     1.244508    0.718517   10.032273    ( 0.0000,  0.0000,  0.0000)
  10 Ni     3.733524    0.718517   10.032273    ( 0.0000,  0.0000,  0.0000)
  11 Ni     6.222540    0.718517   10.032273    ( 0.0000,  0.0000,  0.0000)
  12 Ni     2.489016    2.874068   10.032273    ( 0.0000,  0.0000,  0.0000)
  13 Ni     4.978032    2.874068   10.032273    ( 0.0000,  0.0000,  0.0000)
  14 Ni     7.467048    2.874068   10.032273    ( 0.0000,  0.0000,  0.0000)
  15 Ni     3.733524    5.029619   10.032273    ( 0.0000,  0.0000,  0.0000)
  16 Ni     6.222540    5.029619   10.032273    ( 0.0000,  0.0000,  0.0000)
  17 Ni     8.711556    5.029619   10.032273    ( 0.0000,  0.0000,  0.0000)
  18 Ni     0.000000    1.437034   12.064546    ( 0.0000,  0.0000,  0.0000)
  19 Ni     2.489016    1.437034   12.064546    ( 0.0000,  0.0000,  0.0000)
  20 Ni     4.978032    1.437034   12.064546    ( 0.0000,  0.0000,  0.0000)
  21 Ni     1.244508    3.592585   12.064546    ( 0.0000,  0.0000,  0.0000)
  22 Ni     3.733524    3.592585   12.064546    ( 0.0000,  0.0000,  0.0000)
  23 Ni     6.222540    3.592585   12.064546    ( 0.0000,  0.0000,  0.0000)
  24 Ni     2.489016    5.748136   12.064546    ( 0.0000,  0.0000,  0.0000)
  25 Ni     4.978032    5.748136   12.064546    ( 0.0000,  0.0000,  0.0000)
  26 Ni     7.467048    5.748136   12.064546    ( 0.0000,  0.0000,  0.0000)
  27 Ni     0.000000    0.000000   14.096819    ( 0.0000,  0.0000,  0.0000)
  28 Ni     2.489016    0.000000   14.096819    ( 0.0000,  0.0000,  0.0000)
  29 Ni     4.978032    0.000000   14.096819    ( 0.0000,  0.0000,  0.0000)
  30 Ni     1.244508    2.155551   14.096819    ( 0.0000,  0.0000,  0.0000)
  31 Ni     3.733524    2.155551   14.096819    ( 0.0000,  0.0000,  0.0000)
  32 Ni     6.222540    2.155551   14.096819    ( 0.0000,  0.0000,  0.0000)
  33 Ni     2.489016    4.311102   14.096819    ( 0.0000,  0.0000,  0.0000)
  34 Ni     4.978032    4.311102   14.096819    ( 0.0000,  0.0000,  0.0000)
  35 Ni     7.467048    4.311102   14.096819    ( 0.0000,  0.0000,  0.0000)
  36 Mo     0.000000    0.000000   16.296819    ( 0.0000,  0.0000,  0.0000)
  37 B      1.525000    1.525000   17.821819    ( 0.0000,  0.0000,  0.0000)
  38 Mo     0.000000    3.050000   16.296819    ( 0.0000,  0.0000,  0.0000)
  39 B      1.525000    4.575000   17.821819    ( 0.0000,  0.0000,  0.0000)
  40 Mo     3.050000    0.000000   16.296819    ( 0.0000,  0.0000,  0.0000)
  41 B      4.575000    1.525000   17.821819    ( 0.0000,  0.0000,  0.0000)
  42 Mo     3.050000    3.050000   16.296819    ( 0.0000,  0.0000,  0.0000)
  43 B      4.575000    4.575000   17.821819    ( 0.0000,  0.0000,  0.0000)
  44 Au     2.525169    1.420450   19.621819    ( 0.0000,  0.0000,  0.0000)
  45 Au     2.525169    3.820450   19.621819    ( 0.0000,  0.0000,  0.0000)
  46 Au     4.925169    1.420450   19.621819    ( 0.0000,  0.0000,  0.0000)
  47 Au     4.925169    3.820450   19.621819    ( 0.0000,  0.0000,  0.0000)

Unit cell:
           periodic     x           y           z      points  spacing
  1. axis:    yes    7.467048    0.000000    0.000000    32     0.2021
  2. axis:    yes    3.733524    6.466653    0.000000    32     0.2021
  3. axis:    yes    0.000000    0.000000   25.821819   128     0.2017

  Lengths:   7.467048   7.467048  25.821819
  Angles:   90.000000  90.000000  60.000000

Effective grid spacing dv^(1/3) = 0.2119

     iter     time        total  log10-change:
                         energy   eigst   dens
iter:   1 10:22:16 -1243.282644        c
iter:   2 10:24:23 -4946.301274        c -0.89
iter:   3 10:26:05  -530.449046        c -0.37
iter:   4 10:28:30  -503.590762        c -1.21
iter:   5 10:30:45  -452.258729        c -1.11
iter:   6 10:32:56  -414.472297        c -1.35
iter:   7 10:34:47  -418.998964        c -1.49
iter:   8 10:37:05  -378.057967        c -1.48
iter:   9 10:40:02  -359.026270        c -1.65
iter:  10 10:42:33  -402.560671        c -1.67
iter:  11 10:45:12  -393.881107        c -1.35
iter:  12 10:48:02  -369.379970        c -1.57
iter:  13 10:50:16  -372.984134        c -1.71
iter:  14 10:52:15  -405.526374        c -1.72
iter:  15 10:54:34  -370.095560        c -1.57
iter:  16 10:57:07  -416.655415        c -1.86
iter:  17 10:58:43  -356.872345        c -1.34
iter:  18 11:01:00  -352.619846        c -1.90
iter:  19 11:02:56  -356.481311        c -1.89
iter:  20 11:05:07  -357.778473        c -1.87
iter:  21 11:07:53  -358.241984        c -1.82
iter:  22 11:10:53  -401.499742        c -1.83
iter:  23 11:13:23  -352.196044        c -1.42
iter:  24 11:16:00  -349.669005        c -1.86
iter:  25 11:18:29  -348.112103        c -1.92
iter:  26 11:22:04  -349.232406        c -2.04
iter:  27 11:24:06  -351.936717        c -1.97
iter:  28 11:26:48  -356.290071        c -1.88
iter:  29 11:30:52  -347.014874        c -1.80
iter:  30 11:34:55  -344.822632        c -2.12
iter:  31 11:37:36  -345.631163        c -2.23
iter:  32 11:41:07  -344.814819        c -2.17
iter:  33 11:44:33  -344.137836        c -2.29
iter:  34 11:48:13  -344.531853        c -2.35
iter:  35 11:50:32  -345.385231        c -2.38
iter:  36 11:52:44  -343.585521        c -2.22
iter:  37 11:55:19  -344.123936        c -2.41
iter:  38 11:57:51  -343.123738        c -2.41
iter:  39 12:00:25  -342.977890        c -2.71
iter:  40 12:03:03  -342.866046        c -2.80
iter:  41 12:04:57  -342.878021        c -3.01
iter:  42 12:07:10  -342.846889        c -3.03
iter:  43 12:09:01  -342.856725        c -3.11
iter:  44 12:10:51  -342.882304        c -3.09
iter:  45 12:12:48  -342.847012        c -2.80
iter:  46 12:15:00  -342.962585        c -2.95
iter:  47 12:17:01  -342.833373        c -2.78
iter:  48 12:19:11  -342.824658        c -3.07
iter:  49 12:21:13  -342.849072        c -3.10
iter:  50 12:23:43  -342.877689        c -2.92
iter:  51 12:26:10  -342.842886        c -2.94
iter:  52 12:28:24  -342.894574        c -3.15
iter:  53 12:30:14  -342.825529        c -2.95
iter:  54 12:32:45  -342.820605        c -3.18
iter:  55 12:34:33  -342.821485c       c -3.27
iter:  56 12:36:29  -342.825863c       c -3.24
iter:  57 12:38:41  -342.823767c       c -3.18
iter:  58 12:41:00  -342.828119c       c -3.16
iter:  59 12:43:04  -342.825390c       c -3.24
iter:  60 12:45:24  -342.817253        c -3.29
iter:  61 12:47:25  -342.818936        c -3.24
iter:  62 12:49:22  -342.817472c       c -3.56
iter:  63 12:52:12  -342.880971        c -3.53
iter:  64 12:54:30  -342.817847        c -2.99
iter:  65 12:57:08  -342.819521        c -3.82
iter:  66 13:00:27  -342.820387c       c -3.99
iter:  67 13:03:21  -342.819176c       c -3.82
iter:  68 13:07:29  -342.818430c       c -4.17c

Converged after 68 iterations.

Dipole moment: (-29.699609, -11.376431, 0.629992) |e|*Ang

Energy contributions relative to reference atoms: (reference = -3994805.452343)

Kinetic:       +124.533684
Potential:      -83.425242
External:        +0.000000
XC:            -381.146850
Entropy (-ST):   -3.455262
Local:           -1.052391
SIC:             +0.000000
--------------------------
Free energy:   -344.546061
Extrapolated:  -342.818430

Showing only first 2 kpts
 Kpt  Band  Eigenvalues  Occupancy
  0   342      1.15608    1.08563
  0   343      1.18382    0.94722
  0   344      1.20035    0.86533
  0   345      1.20767    0.82960

  1   342      1.08894    1.39824
  1   343      1.09653    1.36582
  1   344      1.10431    1.33169
  1   345      1.11018    1.30532


Fermi level: 1.17325

No gap
No difference between direct/indirect transitions
Timing:                              incl.     excl.
-----------------------------------------------------------
Basic WFS set positions:             0.000     0.000   0.0% |
Basis functions set positions:       0.165     0.165   0.0% |
LCAO WFS Initialize:                 0.376     0.084   0.0% |
 Hamiltonian:                        0.292     0.000   0.0% |
  Atomic:                            0.160     0.002   0.0% |
   XC Correction:                    0.158     0.158   0.0% |
  Calculate atomic Hamiltonians:     0.024     0.024   0.0% |
  Communicate:                       0.000     0.000   0.0% |
  Hartree integrate/restrict:        0.009     0.009   0.0% |
  Initialize Hamiltonian:            0.001     0.001   0.0% |
  Poisson:                           0.059     0.004   0.0% |
   Communicate from 1D:              0.006     0.006   0.0% |
   Communicate from 2D:              0.008     0.008   0.0% |
   Communicate to 1D:                0.006     0.006   0.0% |
   Communicate to 2D:                0.008     0.008   0.0% |
   FFT 1D:                           0.007     0.007   0.0% |
   FFT 2D:                           0.020     0.020   0.0% |
  XC 3D grid:                        0.035     0.035   0.0% |
  vbar:                              0.004     0.004   0.0% |
P tci:                               4.607     4.607   0.0% |
SCF-cycle:                        9963.141     0.289   0.0% |
 Density:                         4281.314     0.001   0.0% |
  Atomic density matrices:           1.234     1.234   0.0% |
  Mix:                               9.633     9.633   0.1% |
  Multipole moments:                 0.018     0.018   0.0% |
  Normalize:                         0.006     0.006   0.0% |
  Pseudo density:                 4270.421     0.030   0.0% |
   Calculate density matrix:        12.998    12.998   0.1% |
   Construct density:             4257.393  4257.393  42.7% |----------------|
   Symmetrize density:               0.001     0.001   0.0% |
 Hamiltonian:                       22.309     0.003   0.0% |
  Atomic:                           10.808     0.135   0.0% |
   XC Correction:                   10.673    10.673   0.1% |
  Calculate atomic Hamiltonians:     1.698     1.698   0.0% |
  Communicate:                       0.000     0.000   0.0% |
  Hartree integrate/restrict:        0.838     0.838   0.0% |
  Poisson:                           4.196     0.360   0.0% |
   Communicate from 1D:              0.491     0.491   0.0% |
   Communicate from 2D:              0.442     0.442   0.0% |
   Communicate to 1D:                0.391     0.391   0.0% |
   Communicate to 2D:                0.652     0.652   0.0% |
   FFT 1D:                           0.446     0.446   0.0% |
   FFT 2D:                           1.415     1.415   0.0% |
  XC 3D grid:                        3.948     3.948   0.0% |
  vbar:                              0.818     0.818   0.0% |
 LCAO eigensolver:                5659.228     1.999   0.0% |
  Calculate projections:           118.830   118.830   1.2% |
  DenseAtomicCorrection:           285.393   285.393   2.9% ||
  Distribute overlap matrix:         3.395     3.395   0.0% |
  Orbital Layouts:                4522.172  4522.172  45.3% |-----------------|
  Potential matrix:                669.382   669.382   6.7% |--|
  Sum over cells:                   58.058    58.058   0.6% |
ST tci:                              1.904     1.904   0.0% |
Set symmetry:                        0.000     0.000   0.0% |
TCI: Evaluate splines:               0.482     0.482   0.0% |
mktci:                               0.026     0.026   0.0% |
Other:                               4.898     4.898   0.0% |
-----------------------------------------------------------
Total:                                      9975.600 100.0%

Memory usage: 4.71 GiB
Date: Fri Mar  6 13:07:29 2026
