
  ___ ___ ___ _ _ _  
 |   |   |_  | | | | 
 | | | | | . | | | | 
 |__ |  _|___|_____|  25.7.0
 |___|_|             

User:   mikei@Z790-AORUS-ELITE-AX
Date:   Fri Mar  6 13:07:29 2026
Arch:   x86_64
Pid:    89048
CWD:    /home/mikei/Dokumenty/code/cemea/ocx
Python: 3.10.16
gpaw:   /home/mikei/.pyenv/versions/cemea-env/lib/python3.10/site-packages/gpaw
_gpaw:  /home/mikei/.pyenv/versions/cemea-env/lib/python3.10/site-packages/
        _gpaw.cpython-310-x86_64-linux-gnu.so
ase:    /home/mikei/.pyenv/versions/cemea-env/lib/python3.10/site-packages/ase (version 3.27.0)
numpy:  /home/mikei/.pyenv/versions/cemea-env/lib/python3.10/site-packages/numpy (version 2.2.6)
scipy:  /home/mikei/.pyenv/versions/cemea-env/lib/python3.10/site-packages/scipy (version 1.15.3)
libxc:  2.x.y
units:  Angstrom and eV
cores: 1
OpenMP: False
OMP_NUM_THREADS: 1

Input parameters:
  basis: dzp
  convergence: {density: 0.0001,
                eigenstates: 1e-05,
                energy: 1e-05}
  kpts: [4 4 1]
  mode: lcao

System changes: positions, numbers, cell, pbc, initial_charges, initial_magmoms 

Initialize ...

species:
  Ni:
    name: Nickel
    id: 1802175e8de9ea26d9f4394ec1a7d564
    Z: 28.0
    valence: 16
    core: 12
    charge: 0.0
    file: /home/mikei/.pyenv/versions/cemea-env/lib/python3.10/site-packages/gpaw_data/setups/Ni.LDA.gz
    compensation charges: {type: gauss,
                           rc: 0.36,
                           lmax: 2}
    cutoffs: {filter: 2.14,
              core: 1.98}
    projectors:
      #              energy  rcut
      - 4s(2.00)    -5.858   1.164
      - 3p(6.00)   -71.266   1.207
      - 4p(0.00)    -1.338   1.207
      - 3d(8.00)    -9.141   1.138
      -  s          21.353   1.164
      -  d          18.071   1.138
  
    # LCAO basis set for Ni:
    #   Name: dzp
    #   File: /home/mikei/.pyenv/versions/cemea-env/lib/python3.10/site-packages/gpaw_data/setups/Ni.dzp.basis.gz
    #   Number of radial functions: 9
    #   Number of spherical harmonics: 27
    #     l=0, rc=8.5156 Bohr: 4s-sz confined orbital
    #     l=1, rc=2.9375 Bohr: 3p-sz confined orbital
    #     l=1, rc=12.4062 Bohr: 4p-sz confined orbital
    #     l=2, rc=4.6875 Bohr: 3d-sz confined orbital
    #     l=0, rc=4.9688 Bohr: 4s-dz split-valence wave
    #     l=1, rc=2.0781 Bohr: 3p-dz split-valence wave
    #     l=1, rc=7.5469 Bohr: 4p-dz split-valence wave
    #     l=2, rc=2.9375 Bohr: 3d-dz split-valence wave
    #     l=1, rc=8.5156 Bohr: p-type Gaussian polarization
    #   Number of RI-basis functions 0

  Mo:
    name: Molybdenum
    id: ac24daaf086600a00ce6d19a74574df1
    Z: 42.0
    valence: 14
    core: 28
    charge: 0.0
    file: /home/mikei/.pyenv/versions/cemea-env/lib/python3.10/site-packages/gpaw_data/setups/Mo.LDA.gz
    compensation charges: {type: gauss,
                           rc: 0.38,
                           lmax: 2}
    cutoffs: {filter: 2.16,
              core: 1.42}
    projectors:
      #              energy  rcut
      - 4s(2.00)   -64.384   1.238
      - 5s(1.00)    -4.319   1.238
      - 4p(6.00)   -38.595   1.296
      - 5p(0.00)    -1.161   1.296
      - 4d(5.00)    -3.933   1.296
      -  d          23.278   1.296
  
    # LCAO basis set for Mo:
    #   Name: dzp
    #   File: /home/mikei/.pyenv/versions/cemea-env/lib/python3.10/site-packages/gpaw_data/setups/Mo.dzp.basis.gz
    #   Number of radial functions: 11
    #   Number of spherical harmonics: 29
    #     l=0, rc=3.5469 Bohr: 4s-sz confined orbital
    #     l=0, rc=10.0469 Bohr: 5s-sz confined orbital
    #     l=1, rc=4.0781 Bohr: 4p-sz confined orbital
    #     l=1, rc=14.0938 Bohr: 5p-sz confined orbital
    #     l=2, rc=7.2031 Bohr: 4d-sz confined orbital
    #     l=0, rc=2.1250 Bohr: 4s-dz split-valence wave
    #     l=0, rc=6.1250 Bohr: 5s-dz split-valence wave
    #     l=1, rc=2.5469 Bohr: 4p-dz split-valence wave
    #     l=1, rc=8.7656 Bohr: 5p-dz split-valence wave
    #     l=2, rc=4.2344 Bohr: 4d-dz split-valence wave
    #     l=1, rc=10.0469 Bohr: p-type Gaussian polarization
    #   Number of RI-basis functions 0

  B:
    name: Boron
    id: 02e2e0e88ef95f403158802f6b0f4231
    Z: 5.0
    valence: 3
    core: 2
    charge: 0.0
    file: /home/mikei/.pyenv/versions/cemea-env/lib/python3.10/site-packages/gpaw_data/setups/B.LDA.gz
    compensation charges: {type: gauss,
                           rc: 0.20,
                           lmax: 2}
    cutoffs: {filter: 1.14,
              core: 1.42}
    projectors:
      #              energy  rcut
      - 2s(2.00)    -9.383   0.635
      - 2p(1.00)    -3.714   0.635
      -  s          17.828   0.635
      -  p          23.498   0.635
      -  d           0.000   0.635
  
    # LCAO basis set for B:
    #   Name: dzp
    #   File: /home/mikei/.pyenv/versions/cemea-env/lib/python3.10/site-packages/gpaw_data/setups/B.dzp.basis.gz
    #   Number of radial functions: 5
    #   Number of spherical harmonics: 13
    #     l=0, rc=6.6719 Bohr: 2s-sz confined orbital
    #     l=1, rc=8.2188 Bohr: 2p-sz confined orbital
    #     l=0, rc=3.7500 Bohr: 2s-dz split-valence wave
    #     l=1, rc=4.6094 Bohr: 2p-dz split-valence wave
    #     l=2, rc=8.2188 Bohr: d-type Gaussian polarization
    #   Number of RI-basis functions 0

  Au:
    name: Gold
    id: a44207148b704df7bec07bf25e8feca8
    Z: 79.0
    valence: 11
    core: 68
    charge: 0.0
    file: /home/mikei/.pyenv/versions/cemea-env/lib/python3.10/site-packages/gpaw_data/setups/Au.LDA.gz
    compensation charges: {type: gauss,
                           rc: 0.42,
                           lmax: 2}
    cutoffs: {filter: 2.33,
              core: 2.81}
    projectors:
      #              energy  rcut
      - 6s(1.00)    -6.048   1.323
      - 6p(0.00)    -0.888   1.323
      - 5d(10.00)    -7.129   1.323
      -  s          21.163   1.323
      -  p          26.323   1.323
      -  d          20.082   1.323
  
    # LCAO basis set for Au:
    #   Name: dzp
    #   File: /home/mikei/.pyenv/versions/cemea-env/lib/python3.10/site-packages/gpaw_data/setups/Au.dzp.basis.gz
    #   Number of radial functions: 5
    #   Number of spherical harmonics: 15
    #     l=0, rc=8.5938 Bohr: 6s-sz confined orbital
    #     l=2, rc=5.9219 Bohr: 5d-sz confined orbital
    #     l=0, rc=4.9844 Bohr: 6s-dz split-valence wave
    #     l=2, rc=3.5156 Bohr: 5d-dz split-valence wave
    #     l=1, rc=8.5938 Bohr: p-type Gaussian polarization
    #   Number of RI-basis functions 0

  H:
    name: Hydrogen
    id: 4766778ce56282eaa64abeb28b7c1de3
    Z: 1.0
    valence: 1
    core: 0
    charge: 0.0
    file: /home/mikei/.pyenv/versions/cemea-env/lib/python3.10/site-packages/gpaw_data/setups/H.LDA.gz
    compensation charges: {type: gauss,
                           rc: 0.15,
                           lmax: 2}
    cutoffs: {filter: 0.85,
              core: 0.53}
    projectors:
      #              energy  rcut
      - 1s(1.00)    -6.353   0.476
      -  s          20.858   0.476
      -  p           0.000   0.476
  
    # LCAO basis set for H:
    #   Name: dzp
    #   File: /home/mikei/.pyenv/versions/cemea-env/lib/python3.10/site-packages/gpaw_data/setups/H.dzp.basis.gz
    #   Number of radial functions: 3
    #   Number of spherical harmonics: 5
    #     l=0, rc=6.4219 Bohr: 1s-sz confined orbital
    #     l=0, rc=3.6094 Bohr: 1s-dz split-valence wave
    #     l=1, rc=6.4219 Bohr: p-type Gaussian polarization
    #   Number of RI-basis functions 0

Reference energy: -3994817.581302  # eV

Spin-paired calculation

Convergence criteria:
 Maximum [total energy] change in last 3 cyles: 1e-05 eV / valence electron
 Maximum integral of absolute [dens]ity change: 0.0001 electrons / valence electron
 Maximum integral of absolute [eigenst]ate change: 1e-05 eV^2 / valence electron
 Maximum number of scf [iter]ations: 333
 (Square brackets indicate name in SCF output, whereas a 'c' in
 the SCF output indicates the quantity has converged.)

Symmetries present (total): 1

  ( 1  0  0)
  ( 0  1  0)
  ( 0  0  1)

16 k-points: 4 x 4 x 1 Monkhorst-Pack grid
8 k-points in the irreducible part of the Brillouin zone
       k-points in crystal coordinates                weights
   0:     0.12500000   -0.37500000    0.00000000          2/16
   1:     0.12500000   -0.12500000    0.00000000          2/16
   2:     0.12500000    0.12500000    0.00000000          2/16
   3:     0.12500000    0.37500000    0.00000000          2/16
   4:     0.37500000   -0.37500000    0.00000000          2/16
   5:     0.37500000   -0.12500000    0.00000000          2/16
   6:     0.37500000    0.12500000    0.00000000          2/16
   7:     0.37500000    0.37500000    0.00000000          2/16

Wave functions: LCAO
  Diagonalizer: Serial LAPACK
  Atomic Correction: dense with blas
  Data-type: complex
 

Occupation numbers: Fermi-Dirac:
  width: 0.1000  # eV
 

Eigensolver
   LCAO using direct dense diagonalizer 

Densities:
  Coarse grid: 32*32*128 grid
  Fine grid: 64*64*256 grid
  Total Charge: 0.000000 

Density mixing:
  Method: separate
  Backend: pulay
  Linear mixing parameter: 0.05
  old densities: 5
  Damping of long wavelength oscillations: 50 

Hamiltonian:
  XC and Coulomb potentials evaluated on a 64*64*256 grid
  Using the LDA Exchange-Correlation functional
  Interpolation: tri-quintic (5. degree polynomial)
  Poisson solver: FastPoissonSolver using
    Stencil: 8*3+1=25 point O(h^6) finite-difference Laplacian
    FFT axes: [np.int64(0), np.int64(1), np.int64(2)]
    FST axes: []
 

Memory estimate:
  Process memory now: 4818.40 MiB
  Calculator: 887.97 MiB
    Density: 196.64 MiB
      Arrays: 26.00 MiB
      Localized functions: 160.64 MiB
      Mixer: 10.00 MiB
    Hamiltonian: 29.10 MiB
      Arrays: 17.00 MiB
      XC: 0.00 MiB
      Poisson: 0.00 MiB
      vbar: 12.10 MiB
    Wavefunctions: 662.23 MiB
      C [qnM]: 61.49 MiB
      S, T [2 x qmm]: 354.50 MiB
      P [aqMi]: 7.81 MiB
      BasisFunctions: 238.44 MiB
      Eigensolver: 0.00 MiB

Total number of cores used: 1

Number of atoms: 49
Number of atomic orbitals: 1205
Number of bands in calculation: 418
Number of valence electrons: 689
Bands to converge: occupied

... initialized

Initializing position-dependent things.

Density initialized from atomic densities
                                         
                                         
                                         
                                         
                                         
                                         
                  H                      
                Au   Au                  
              Au    Au                   
                                         
            B      B                     
         Mo     Mo                       
                                         
       Mo      Moi    Ni    Ni           
                                         
           Ni    NNi   NNi   Ni          
       Ni   NNi   NNi   Ni               
        Ni    Ni    Ni                   
                   Ni    Ni    Ni        
               Ni    Ni    Ni            
           Ni    Ni    Ni                
                Ni    Ni    Ni           
           Ni     Ni    Ni               
       Ni    Ni    Ni                    
                                         
                                         
                                         
                                         

Atomic positions and initial magnetic moments

Positions:
   0 Ni     0.000000    0.000000    8.000000    ( 0.0000,  0.0000,  0.0000)
   1 Ni     2.489016    0.000000    8.000000    ( 0.0000,  0.0000,  0.0000)
   2 Ni     4.978032    0.000000    8.000000    ( 0.0000,  0.0000,  0.0000)
   3 Ni     1.244508    2.155551    8.000000    ( 0.0000,  0.0000,  0.0000)
   4 Ni     3.733524    2.155551    8.000000    ( 0.0000,  0.0000,  0.0000)
   5 Ni     6.222540    2.155551    8.000000    ( 0.0000,  0.0000,  0.0000)
   6 Ni     2.489016    4.311102    8.000000    ( 0.0000,  0.0000,  0.0000)
   7 Ni     4.978032    4.311102    8.000000    ( 0.0000,  0.0000,  0.0000)
   8 Ni     7.467048    4.311102    8.000000    ( 0.0000,  0.0000,  0.0000)
   9 Ni     1.244508    0.718517   10.032273    ( 0.0000,  0.0000,  0.0000)
  10 Ni     3.733524    0.718517   10.032273    ( 0.0000,  0.0000,  0.0000)
  11 Ni     6.222540    0.718517   10.032273    ( 0.0000,  0.0000,  0.0000)
  12 Ni     2.489016    2.874068   10.032273    ( 0.0000,  0.0000,  0.0000)
  13 Ni     4.978032    2.874068   10.032273    ( 0.0000,  0.0000,  0.0000)
  14 Ni     7.467048    2.874068   10.032273    ( 0.0000,  0.0000,  0.0000)
  15 Ni     3.733524    5.029619   10.032273    ( 0.0000,  0.0000,  0.0000)
  16 Ni     6.222540    5.029619   10.032273    ( 0.0000,  0.0000,  0.0000)
  17 Ni     8.711556    5.029619   10.032273    ( 0.0000,  0.0000,  0.0000)
  18 Ni     0.000000    1.437034   12.064546    ( 0.0000,  0.0000,  0.0000)
  19 Ni     2.489016    1.437034   12.064546    ( 0.0000,  0.0000,  0.0000)
  20 Ni     4.978032    1.437034   12.064546    ( 0.0000,  0.0000,  0.0000)
  21 Ni     1.244508    3.592585   12.064546    ( 0.0000,  0.0000,  0.0000)
  22 Ni     3.733524    3.592585   12.064546    ( 0.0000,  0.0000,  0.0000)
  23 Ni     6.222540    3.592585   12.064546    ( 0.0000,  0.0000,  0.0000)
  24 Ni     2.489016    5.748136   12.064546    ( 0.0000,  0.0000,  0.0000)
  25 Ni     4.978032    5.748136   12.064546    ( 0.0000,  0.0000,  0.0000)
  26 Ni     7.467048    5.748136   12.064546    ( 0.0000,  0.0000,  0.0000)
  27 Ni     0.000000    0.000000   14.096819    ( 0.0000,  0.0000,  0.0000)
  28 Ni     2.489016    0.000000   14.096819    ( 0.0000,  0.0000,  0.0000)
  29 Ni     4.978032    0.000000   14.096819    ( 0.0000,  0.0000,  0.0000)
  30 Ni     1.244508    2.155551   14.096819    ( 0.0000,  0.0000,  0.0000)
  31 Ni     3.733524    2.155551   14.096819    ( 0.0000,  0.0000,  0.0000)
  32 Ni     6.222540    2.155551   14.096819    ( 0.0000,  0.0000,  0.0000)
  33 Ni     2.489016    4.311102   14.096819    ( 0.0000,  0.0000,  0.0000)
  34 Ni     4.978032    4.311102   14.096819    ( 0.0000,  0.0000,  0.0000)
  35 Ni     7.467048    4.311102   14.096819    ( 0.0000,  0.0000,  0.0000)
  36 Mo     0.000000    0.000000   16.296819    ( 0.0000,  0.0000,  0.0000)
  37 B      1.525000    1.525000   17.821819    ( 0.0000,  0.0000,  0.0000)
  38 Mo     0.000000    3.050000   16.296819    ( 0.0000,  0.0000,  0.0000)
  39 B      1.525000    4.575000   17.821819    ( 0.0000,  0.0000,  0.0000)
  40 Mo     3.050000    0.000000   16.296819    ( 0.0000,  0.0000,  0.0000)
  41 B      4.575000    1.525000   17.821819    ( 0.0000,  0.0000,  0.0000)
  42 Mo     3.050000    3.050000   16.296819    ( 0.0000,  0.0000,  0.0000)
  43 B      4.575000    4.575000   17.821819    ( 0.0000,  0.0000,  0.0000)
  44 Au     2.525169    1.420450   19.621819    ( 0.0000,  0.0000,  0.0000)
  45 Au     2.525169    3.820450   19.621819    ( 0.0000,  0.0000,  0.0000)
  46 Au     4.925169    1.420450   19.621819    ( 0.0000,  0.0000,  0.0000)
  47 Au     4.925169    3.820450   19.621819    ( 0.0000,  0.0000,  0.0000)
  48 H      3.725169    2.620450   21.121819    ( 0.0000,  0.0000,  0.0000)

Unit cell:
           periodic     x           y           z      points  spacing
  1. axis:    yes    7.467048    0.000000    0.000000    32     0.2021
  2. axis:    yes    3.733524    6.466653    0.000000    32     0.2021
  3. axis:    yes    0.000000    0.000000   25.821819   128     0.2017

  Lengths:   7.467048   7.467048  25.821819
  Angles:   90.000000  90.000000  60.000000

Effective grid spacing dv^(1/3) = 0.2119

     iter     time        total  log10-change:
                         energy   eigst   dens
iter:   1 13:11:12 -1272.386054        c
iter:   2 13:14:54 -5083.764653        c -0.88
iter:   3 13:18:04  -526.482890        c -0.36
iter:   4 13:21:25  -519.739085        c -1.22
iter:   5 13:24:50  -449.018497        c -1.10
iter:   6 13:28:02  -407.854515        c -1.36
iter:   7 13:31:08  -415.460210        c -1.52
iter:   8 13:34:29  -383.937770        c -1.49
iter:   9 13:37:44  -362.692156        c -1.61
iter:  10 13:40:52  -401.305931        c -1.66
iter:  11 13:43:12  -376.676364        c -1.37
iter:  12 13:45:54  -369.424231        c -1.65
iter:  13 13:48:48  -365.288521        c -1.72
iter:  14 13:51:25  -368.018826        c -1.77
iter:  15 13:53:43  -368.938253        c -1.74
iter:  16 13:55:59  -437.436544        c -1.82
iter:  17 13:58:10  -357.110011        c -1.33
iter:  18 14:00:54  -354.602495        c -1.89
iter:  19 14:03:17  -350.149497        c -1.92
iter:  20 14:05:06  -348.513928        c -1.90
iter:  21 14:07:59  -346.523011        c -1.99
iter:  22 14:10:15  -349.483194        c -2.13
iter:  23 14:12:04  -347.480277        c -1.94
iter:  24 14:14:48  -349.009814        c -2.06
iter:  25 14:17:00  -347.087537        c -2.13
iter:  26 14:19:26  -358.478011        c -2.28
iter:  27 14:22:08  -347.757497        c -1.83
iter:  28 14:24:08  -347.996725        c -2.19
iter:  29 14:26:57  -345.982241        c -2.17
iter:  30 14:29:32  -347.083023        c -2.51
iter:  31 14:31:29  -346.424034        c -2.36
iter:  32 14:33:24  -346.504107        c -2.38
iter:  33 14:35:42  -345.683833        c -2.37
iter:  34 14:38:24  -345.612779        c -2.76
iter:  35 14:41:00  -345.629003        c -2.80
iter:  36 14:43:32  -345.573783        c -2.79
iter:  37 14:45:30  -345.585513        c -2.97
iter:  38 14:48:22  -345.586950        c -2.83
iter:  39 14:50:59  -345.613536        c -2.98
iter:  40 14:52:59  -345.549267        c -2.81
iter:  41 14:54:51  -345.672483        c -3.14
iter:  42 14:57:08  -345.603946        c -2.70
iter:  43 14:59:14  -345.560632        c -2.89
iter:  44 15:02:16  -345.539997        c -3.24
iter:  45 15:04:16  -345.562249        c -3.15
iter:  46 15:06:26  -345.538235        c -3.01
iter:  47 15:08:32  -345.538241        c -3.40
iter:  48 15:10:23  -345.538759c       c -3.43
iter:  49 15:12:36  -345.554881        c -3.70
iter:  50 15:14:45  -345.539647        c -3.41
iter:  51 15:16:54  -345.537621        c -4.02c
iter:  52 15:18:54  -345.538792c       c -3.70
iter:  53 15:21:07  -345.542174c       c -3.79
iter:  54 15:23:34  -345.541585c       c -3.91
iter:  55 15:25:33  -345.540225c       c -3.94
iter:  56 15:27:47  -345.539265c       c -4.17c

Converged after 56 iterations.

Dipole moment: (-29.706522, -11.352694, 0.583590) |e|*Ang

Energy contributions relative to reference atoms: (reference = -3994817.581302)

Kinetic:       +128.666410
Potential:      -87.839729
External:        +0.000000
XC:            -383.721040
Entropy (-ST):   -3.445877
Local:           -0.921968
SIC:             +0.000000
--------------------------
Free energy:   -347.262203
Extrapolated:  -345.539265

Showing only first 2 kpts
 Kpt  Band  Eigenvalues  Occupancy
  0   342      1.15347    1.10118
  0   343      1.18309    0.95348
  0   344      1.19390    0.89974
  0   345      1.20526    0.84388

  1   342      1.08507    1.41656
  1   343      1.09433    1.37757
  1   344      1.10411    1.33491
  1   345      1.10717    1.32123


Fermi level: 1.17378

No gap
No difference between direct/indirect transitions
Timing:                              incl.     excl.
-----------------------------------------------------------
Basic WFS set positions:             0.000     0.000   0.0% |
Basis functions set positions:       0.180     0.180   0.0% |
LCAO WFS Initialize:                 0.392     0.085   0.0% |
 Hamiltonian:                        0.306     0.000   0.0% |
  Atomic:                            0.169     0.002   0.0% |
   XC Correction:                    0.167     0.167   0.0% |
  Calculate atomic Hamiltonians:     0.024     0.024   0.0% |
  Communicate:                       0.000     0.000   0.0% |
  Hartree integrate/restrict:        0.010     0.010   0.0% |
  Initialize Hamiltonian:            0.001     0.001   0.0% |
  Poisson:                           0.062     0.005   0.0% |
   Communicate from 1D:              0.007     0.007   0.0% |
   Communicate from 2D:              0.008     0.008   0.0% |
   Communicate to 1D:                0.007     0.007   0.0% |
   Communicate to 2D:                0.008     0.008   0.0% |
   FFT 1D:                           0.008     0.008   0.0% |
   FFT 2D:                           0.020     0.020   0.0% |
  XC 3D grid:                        0.037     0.037   0.0% |
  vbar:                              0.004     0.004   0.0% |
P tci:                               5.815     5.815   0.1% |
SCF-cycle:                        8402.548     0.247   0.0% |
 Density:                         3573.154     0.001   0.0% |
  Atomic density matrices:           1.021     1.021   0.0% |
  Mix:                               7.681     7.681   0.1% |
  Multipole moments:                 0.015     0.015   0.0% |
  Normalize:                         0.005     0.005   0.0% |
  Pseudo density:                 3564.430     0.025   0.0% |
   Calculate density matrix:        10.931    10.931   0.1% |
   Construct density:             3553.472  3553.472  42.2% |----------------|
   Symmetrize density:               0.001     0.001   0.0% |
 Hamiltonian:                       18.454     0.002   0.0% |
  Atomic:                            8.976     0.108   0.0% |
   XC Correction:                    8.868     8.868   0.1% |
  Calculate atomic Hamiltonians:     1.383     1.383   0.0% |
  Communicate:                       0.000     0.000   0.0% |
  Hartree integrate/restrict:        0.700     0.700   0.0% |
  Poisson:                           3.363     0.288   0.0% |
   Communicate from 1D:              0.394     0.394   0.0% |
   Communicate from 2D:              0.348     0.348   0.0% |
   Communicate to 1D:                0.320     0.320   0.0% |
   Communicate to 2D:                0.498     0.498   0.0% |
   FFT 1D:                           0.353     0.353   0.0% |
   FFT 2D:                           1.162     1.162   0.0% |
  XC 3D grid:                        3.340     3.340   0.0% |
  vbar:                              0.689     0.689   0.0% |
 LCAO eigensolver:                4810.692     1.697   0.0% |
  Calculate projections:            98.070    98.070   1.2% |
  DenseAtomicCorrection:           259.008   259.008   3.1% ||
  Distribute overlap matrix:         3.297     3.297   0.0% |
  Orbital Layouts:                3835.178  3835.178  45.6% |-----------------|
  Potential matrix:                564.122   564.122   6.7% |--|
  Sum over cells:                   49.321    49.321   0.6% |
ST tci:                              2.325     2.325   0.0% |
Set symmetry:                        0.000     0.000   0.0% |
TCI: Evaluate splines:               0.628     0.628   0.0% |
mktci:                               0.029     0.029   0.0% |
Other:                               6.481     6.481   0.1% |
-----------------------------------------------------------
Total:                                      8418.399 100.0%

Memory usage: 4.71 GiB
Date: Fri Mar  6 15:27:47 2026
