
  ___ ___ ___ _ _ _  
 |   |   |_  | | | | 
 | | | | | . | | | | 
 |__ |  _|___|_____|  25.7.0
 |___|_|             

User:   ubuntu@third-test
Date:   Mon Feb 16 09:42:14 2026
Arch:   x86_64
Pid:    2718679
CWD:    /mnt/vdd1/work/cemea/fairchem/src/fairchem/applications/ocx/mo_h_adsorption_workflow
Python: 3.10.16
gpaw:   /home/ubuntu/.pyenv/versions/cemea-env/lib/python3.10/site-packages/gpaw
_gpaw:  /home/ubuntu/.pyenv/versions/cemea-env/lib/python3.10/site-packages/
        _gpaw.cpython-310-x86_64-linux-gnu.so
ase:    /home/ubuntu/.pyenv/versions/cemea-env/lib/python3.10/site-packages/ase (version 3.27.0)
numpy:  /home/ubuntu/.pyenv/versions/cemea-env/lib/python3.10/site-packages/numpy (version 2.2.6)
scipy:  /home/ubuntu/.pyenv/versions/cemea-env/lib/python3.10/site-packages/scipy (version 1.15.3)
libxc:  2.x.y
units:  Angstrom and eV
cores: 1
OpenMP: False
OMP_NUM_THREADS: 1

Input parameters:
  basis: dzp
  convergence: {density: 0.0001,
                eigenstates: 1e-05,
                energy: 1e-05}
  kpts: [4 4 1]
  mode: lcao

System changes: positions, numbers, cell, pbc, initial_charges, initial_magmoms 

Initialize ...

species:
  Mo:
    name: Molybdenum
    id: ac24daaf086600a00ce6d19a74574df1
    Z: 42.0
    valence: 14
    core: 28
    charge: 0.0
    file: /home/ubuntu/.pyenv/versions/cemea-env/lib/python3.10/site-packages/gpaw_data/setups/Mo.LDA.gz
    compensation charges: {type: gauss,
                           rc: 0.38,
                           lmax: 2}
    cutoffs: {filter: 2.16,
              core: 1.42}
    projectors:
      #              energy  rcut
      - 4s(2.00)   -64.384   1.238
      - 5s(1.00)    -4.319   1.238
      - 4p(6.00)   -38.595   1.296
      - 5p(0.00)    -1.161   1.296
      - 4d(5.00)    -3.933   1.296
      -  d          23.278   1.296
  
    # LCAO basis set for Mo:
    #   Name: dzp
    #   File: /home/ubuntu/.pyenv/versions/cemea-env/lib/python3.10/site-packages/gpaw_data/setups/Mo.dzp.basis.gz
    #   Number of radial functions: 11
    #   Number of spherical harmonics: 29
    #     l=0, rc=3.5469 Bohr: 4s-sz confined orbital
    #     l=0, rc=10.0469 Bohr: 5s-sz confined orbital
    #     l=1, rc=4.0781 Bohr: 4p-sz confined orbital
    #     l=1, rc=14.0938 Bohr: 5p-sz confined orbital
    #     l=2, rc=7.2031 Bohr: 4d-sz confined orbital
    #     l=0, rc=2.1250 Bohr: 4s-dz split-valence wave
    #     l=0, rc=6.1250 Bohr: 5s-dz split-valence wave
    #     l=1, rc=2.5469 Bohr: 4p-dz split-valence wave
    #     l=1, rc=8.7656 Bohr: 5p-dz split-valence wave
    #     l=2, rc=4.2344 Bohr: 4d-dz split-valence wave
    #     l=1, rc=10.0469 Bohr: p-type Gaussian polarization
    #   Number of RI-basis functions 0

  Ag:
    name: Silver
    id: 5bcdc129af383d1b52b015d30ddad325
    Z: 47.0
    valence: 17
    core: 30
    charge: 0.0
    file: /home/ubuntu/.pyenv/versions/cemea-env/lib/python3.10/site-packages/gpaw_data/setups/Ag.LDA.gz
    compensation charges: {type: gauss,
                           rc: 0.40,
                           lmax: 2}
    cutoffs: {filter: 2.35,
              core: 2.19}
    projectors:
      #              energy  rcut
      - 5s(1.00)    -4.708   1.286
      - 4p(6.00)   -58.678   1.328
      - 5p(0.00)    -0.844   1.328
      - 4d(10.00)    -7.664   1.180
      -  s          22.503   1.286
      -  d          19.547   1.180
  
    # LCAO basis set for Ag:
    #   Name: dzp
    #   File: /home/ubuntu/.pyenv/versions/cemea-env/lib/python3.10/site-packages/gpaw_data/setups/Ag.dzp.basis.gz
    #   Number of radial functions: 9
    #   Number of spherical harmonics: 27
    #     l=0, rc=9.2812 Bohr: 5s-sz confined orbital
    #     l=1, rc=3.3750 Bohr: 4p-sz confined orbital
    #     l=1, rc=14.2344 Bohr: 5p-sz confined orbital
    #     l=2, rc=5.4531 Bohr: 4d-sz confined orbital
    #     l=0, rc=5.5156 Bohr: 5s-dz split-valence wave
    #     l=1, rc=2.3281 Bohr: 4p-dz split-valence wave
    #     l=1, rc=8.7656 Bohr: 5p-dz split-valence wave
    #     l=2, rc=3.2656 Bohr: 4d-dz split-valence wave
    #     l=1, rc=9.2812 Bohr: p-type Gaussian polarization
    #   Number of RI-basis functions 0

  N:
    name: Nitrogen
    id: c467cdfa1b75f62c8f7a0469921b1cfb
    Z: 7.0
    valence: 5
    core: 2
    charge: 0.0
    file: /home/ubuntu/.pyenv/versions/cemea-env/lib/python3.10/site-packages/gpaw_data/setups/N.LDA.gz
    compensation charges: {type: gauss,
                           rc: 0.18,
                           lmax: 2}
    cutoffs: {filter: 1.11,
              core: 0.96}
    projectors:
      #              energy  rcut
      - 2s(2.00)   -18.420   0.603
      - 2p(3.00)    -7.237   0.529
      -  s           8.791   0.603
      -  p          19.974   0.529
      -  d           0.000   0.577
  
    # LCAO basis set for N:
    #   Name: dzp
    #   File: /home/ubuntu/.pyenv/versions/cemea-env/lib/python3.10/site-packages/gpaw_data/setups/N.dzp.basis.gz
    #   Number of radial functions: 5
    #   Number of spherical harmonics: 13
    #     l=0, rc=4.8594 Bohr: 2s-sz confined orbital
    #     l=1, rc=6.0625 Bohr: 2p-sz confined orbital
    #     l=0, rc=2.6094 Bohr: 2s-dz split-valence wave
    #     l=1, rc=3.2656 Bohr: 2p-dz split-valence wave
    #     l=2, rc=6.0625 Bohr: d-type Gaussian polarization
    #   Number of RI-basis functions 0

  H:
    name: Hydrogen
    id: 4766778ce56282eaa64abeb28b7c1de3
    Z: 1.0
    valence: 1
    core: 0
    charge: 0.0
    file: /home/ubuntu/.pyenv/versions/cemea-env/lib/python3.10/site-packages/gpaw_data/setups/H.LDA.gz
    compensation charges: {type: gauss,
                           rc: 0.15,
                           lmax: 2}
    cutoffs: {filter: 0.85,
              core: 0.53}
    projectors:
      #              energy  rcut
      - 1s(1.00)    -6.353   0.476
      -  s          20.858   0.476
      -  p           0.000   0.476
  
    # LCAO basis set for H:
    #   Name: dzp
    #   File: /home/ubuntu/.pyenv/versions/cemea-env/lib/python3.10/site-packages/gpaw_data/setups/H.dzp.basis.gz
    #   Number of radial functions: 3
    #   Number of spherical harmonics: 5
    #     l=0, rc=6.4219 Bohr: 1s-sz confined orbital
    #     l=0, rc=3.6094 Bohr: 1s-dz split-valence wave
    #     l=1, rc=6.4219 Bohr: p-type Gaussian polarization
    #   Number of RI-basis functions 0

Reference energy: -920498.850249  # eV

Spin-paired calculation

Convergence criteria:
 Maximum [total energy] change in last 3 cyles: 1e-05 eV / valence electron
 Maximum integral of absolute [dens]ity change: 0.0001 electrons / valence electron
 Maximum integral of absolute [eigenst]ate change: 1e-05 eV^2 / valence electron
 Maximum number of scf [iter]ations: 333
 (Square brackets indicate name in SCF output, whereas a 'c' in
 the SCF output indicates the quantity has converged.)

Symmetries present (total): 2

  ( 1  0  0)  ( 0  1  0)
  ( 0  1  0)  ( 1  0  0)
  ( 0  0  1)  ( 0  0  1)

16 k-points: 4 x 4 x 1 Monkhorst-Pack grid
6 k-points in the irreducible part of the Brillouin zone
       k-points in crystal coordinates                weights
   0:     0.12500000   -0.12500000    0.00000000          2/16
   1:     0.12500000    0.12500000    0.00000000          2/16
   2:     0.37500000   -0.37500000    0.00000000          2/16
   3:     0.37500000   -0.12500000    0.00000000          4/16
   4:     0.37500000    0.12500000    0.00000000          4/16
   5:     0.37500000    0.37500000    0.00000000          2/16

Wave functions: LCAO
  Diagonalizer: Serial LAPACK
  Atomic Correction: dense with blas
  Data-type: complex
 

Occupation numbers: Fermi-Dirac:
  width: 0.1000  # eV
 

Eigensolver
   LCAO using direct dense diagonalizer 

Densities:
  Coarse grid: 40*40*92 grid
  Fine grid: 80*80*184 grid
  Total Charge: 0.000000 

Density mixing:
  Method: separate
  Backend: pulay
  Linear mixing parameter: 0.05
  old densities: 5
  Damping of long wavelength oscillations: 50 

Hamiltonian:
  XC and Coulomb potentials evaluated on a 80*80*184 grid
  Using the LDA Exchange-Correlation functional
  Interpolation: tri-quintic (5. degree polynomial)
  Poisson solver: FastPoissonSolver using
    Stencil: 6*3+1=19 point O(h^6) finite-difference Laplacian
    FFT axes: [np.int64(0), np.int64(1), np.int64(2)]
    FST axes: []
 

Memory estimate:
  Process memory now: 1295.51 MiB
  Calculator: 201.11 MiB
    Density: 80.79 MiB
      Arrays: 29.20 MiB
      Localized functions: 40.36 MiB
      Mixer: 11.23 MiB
    Hamiltonian: 21.78 MiB
      Arrays: 19.09 MiB
      XC: 0.00 MiB
      Poisson: 0.00 MiB
      vbar: 2.69 MiB
    Wavefunctions: 98.54 MiB
      C [qnM]: 2.26 MiB
      S, T [2 x qmm]: 15.08 MiB
      P [aqMi]: 0.33 MiB
      BasisFunctions: 80.87 MiB
      Eigensolver: 0.00 MiB

Total number of cores used: 1

Number of atoms: 13
Number of atomic orbitals: 287
Number of bands in calculation: 86
Number of valence electrons: 136
Bands to converge: occupied

... initialized

Initializing position-dependent things.

Density initialized from atomic densities
      .-------------------.  
     /|                   |  
    / |                   |  
   /  |                   |  
  /   |                   |  
 *    |                   |  
 |    |                   |  
 |    |                   |  
 |    |                   |  
 |    |                   |  
 |    |                   |  
 |    |   MH        Mo    |  
 |    |                   |  
 |    |Ag        Mo       |  
 |    |   N         N     |  
 |  Mo|       Mo          |  
 |    |N         N        |  
 Mo   |    Mo             |  
 |    |                   |  
 |    |                   |  
 |    |                   |  
 |    |                   |  
 |    .-------------------.  
 |   /                   /   
 |  /                   /    
 | /                   /     
 |/                   /      
 *-------------------*       

Atomic positions and initial magnetic moments

Positions:
   0 Mo     0.000000    0.000000    8.000000    ( 0.0000,  0.0000,  0.0000)
   1 Ag     2.080000    2.080000   10.080000    ( 0.0000,  0.0000,  0.0000)
   2 N      2.080000    2.080000    8.000000    ( 0.0000,  0.0000,  0.0000)
   3 Mo     0.000000    4.160000    8.000000    ( 0.0000,  0.0000,  0.0000)
   4 Mo     2.080000    6.240000   10.080000    ( 0.0000,  0.0000,  0.0000)
   5 N      2.080000    6.240000    8.000000    ( 0.0000,  0.0000,  0.0000)
   6 Mo     4.160000    0.000000    8.000000    ( 0.0000,  0.0000,  0.0000)
   7 Mo     6.240000    2.080000   10.080000    ( 0.0000,  0.0000,  0.0000)
   8 N      6.240000    2.080000    8.000000    ( 0.0000,  0.0000,  0.0000)
   9 Mo     4.160000    4.160000    8.000000    ( 0.0000,  0.0000,  0.0000)
  10 Mo     6.240000    6.240000   10.080000    ( 0.0000,  0.0000,  0.0000)
  11 N      6.240000    6.240000    8.000000    ( 0.0000,  0.0000,  0.0000)
  12 H      3.466667    3.466667   11.580000    ( 0.0000,  0.0000,  0.0000)

Unit cell:
           periodic     x           y           z      points  spacing
  1. axis:    yes    8.320000    0.000000    0.000000    40     0.2080
  2. axis:    yes    0.000000    8.320000    0.000000    40     0.2080
  3. axis:    yes    0.000000    0.000000   18.080000    92     0.1965

  Lengths:   8.320000   8.320000  18.080000
  Angles:   90.000000  90.000000  90.000000

Effective grid spacing dv^(1/3) = 0.2041

     iter     time        total  log10-change:
                         energy   eigst   dens
iter:   1 09:43:30   -88.958869        c
iter:   2 09:44:51   -82.208803        c -0.88
iter:   3 09:46:13   -78.935606        c -1.00
iter:   4 09:47:37   -74.601651        c -1.02
iter:   5 09:48:59   -73.865844        c -1.20
iter:   6 09:50:25   -72.481346        c -1.24
iter:   7 09:51:52   -71.797945        c -1.35
iter:   8 09:53:20   -71.628155        c -1.55
iter:   9 09:54:47   -71.610889        c -1.68
iter:  10 09:56:15   -71.541416        c -1.67
iter:  11 09:57:30   -71.537913        c -1.75
iter:  12 09:58:58   -71.478617        c -1.84
iter:  13 10:00:21   -71.457665        c -1.99
iter:  14 10:01:40   -71.435572        c -2.05
iter:  15 10:03:03   -71.420721        c -2.11
iter:  16 10:04:23   -71.406444        c -2.14
iter:  17 10:05:42   -71.398828        c -2.25
iter:  18 10:07:00   -71.395274        c -2.32
iter:  19 10:08:17   -71.391427        c -2.35
iter:  20 10:09:45   -71.390742        c -2.50
iter:  21 10:11:05   -71.389757        c -2.54
iter:  22 10:12:18   -71.388906        c -2.66
iter:  23 10:13:47   -71.387973        c -2.69
iter:  24 10:14:57   -71.388475c       c -2.74
iter:  25 10:16:19   -71.387425c       c -2.78
iter:  26 10:17:41   -71.386977        c -2.86
iter:  27 10:19:02   -71.386678c       c -2.88
iter:  28 10:20:35   -71.386234c       c -2.94
iter:  29 10:21:56   -71.385803c       c -2.94
iter:  30 10:23:20   -71.385626c       c -3.00
iter:  31 10:24:41   -71.385375c       c -3.03
iter:  32 10:26:10   -71.385094c       c -3.01
iter:  33 10:27:33   -71.384864c       c -3.07
iter:  34 10:28:55   -71.384759c       c -3.14
iter:  35 10:30:04   -71.384638c       c -3.17
iter:  36 10:31:26   -71.384577c       c -3.22
iter:  37 10:32:50   -71.384447c       c -3.26
iter:  38 10:34:13   -71.384425c       c -3.32
iter:  39 10:35:40   -71.384381c       c -3.38
iter:  40 10:36:55   -71.384398c       c -3.47
iter:  41 10:38:15   -71.384380c       c -3.48
iter:  42 10:39:30   -71.384377c       c -3.55
iter:  43 10:40:55   -71.384407c       c -3.66
iter:  44 10:42:07   -71.384402c       c -3.59
iter:  45 10:43:34   -71.384422c       c -3.66
iter:  46 10:45:03   -71.384435c       c -3.67
iter:  47 10:46:23   -71.384423c       c -3.75
iter:  48 10:47:34   -71.384437c       c -3.75
iter:  49 10:49:04   -71.384436c       c -3.82
iter:  50 10:50:29   -71.384437c       c -3.83
iter:  51 10:51:55   -71.384428c       c -3.89
iter:  52 10:53:19   -71.384443c       c -3.97
iter:  53 10:54:44   -71.384428c       c -3.90
iter:  54 10:56:09   -71.384428c       c -3.99
iter:  55 10:57:31   -71.384427c       c -4.10c

Converged after 55 iterations.

Dipole moment: (-5.240111, -5.240111, 0.158771) |e|*Ang

Energy contributions relative to reference atoms: (reference = -920498.850249)

Kinetic:       -188.852437
Potential:     +128.086173
External:        +0.000000
XC:             -11.944478
Entropy (-ST):   -1.370892
Local:           +2.011760
SIC:             +0.000000
--------------------------
Free energy:    -72.069872
Extrapolated:   -71.384427

Showing only first 2 kpts
 Kpt  Band  Eigenvalues  Occupancy
  0    66     -2.36652    1.29994
  0    67     -2.32462    1.09963
  0    68     -2.28810    0.91753
  0    69     -2.25869    0.77423

  1    66     -2.36538    1.29474
  1    67     -2.31937    1.07353
  1    68     -2.28932    0.92360
  1    69     -2.25873    0.77441


Fermi level: -2.30463

No gap
No difference between direct/indirect transitions
Timing:                              incl.     excl.
-----------------------------------------------------------
Basic WFS set positions:             0.000     0.000   0.0% |
Basis functions set positions:       0.087     0.087   0.0% |
LCAO WFS Initialize:                 0.415     0.081   0.0% |
 Hamiltonian:                        0.333     0.000   0.0% |
  Atomic:                            0.080     0.001   0.0% |
   XC Correction:                    0.079     0.079   0.0% |
  Calculate atomic Hamiltonians:     0.012     0.012   0.0% |
  Communicate:                       0.000     0.000   0.0% |
  Hartree integrate/restrict:        0.022     0.022   0.0% |
  Initialize Hamiltonian:            0.002     0.002   0.0% |
  Poisson:                           0.153     0.009   0.0% |
   Communicate from 1D:              0.023     0.023   0.0% |
   Communicate from 2D:              0.021     0.021   0.0% |
   Communicate to 1D:                0.021     0.021   0.0% |
   Communicate to 2D:                0.024     0.024   0.0% |
   FFT 1D:                           0.021     0.021   0.0% |
   FFT 2D:                           0.033     0.033   0.0% |
  XC 3D grid:                        0.063     0.063   0.0% |
  vbar:                              0.002     0.002   0.0% |
P tci:                               0.529     0.529   0.0% |
SCF-cycle:                        4512.212     0.076   0.0% |
 Density:                          513.766     0.001   0.0% |
  Atomic density matrices:           0.158     0.158   0.0% |
  Mix:                              18.810    18.810   0.4% |
  Multipole moments:                 0.013     0.013   0.0% |
  Normalize:                         0.005     0.005   0.0% |
  Pseudo density:                  494.779     0.033   0.0% |
   Calculate density matrix:        10.186    10.186   0.2% |
   Construct density:              484.347   484.347  10.7% |---|
   Symmetrize density:               0.213     0.213   0.0% |
 Hamiltonian:                       18.981     0.005   0.0% |
  Atomic:                            4.410     0.060   0.0% |
   XC Correction:                    4.350     4.350   0.1% |
  Calculate atomic Hamiltonians:     0.462     0.462   0.0% |
  Communicate:                       0.000     0.000   0.0% |
  Hartree integrate/restrict:        1.874     1.874   0.0% |
  Poisson:                           7.136     0.349   0.0% |
   Communicate from 1D:              1.083     1.083   0.0% |
   Communicate from 2D:              1.000     1.000   0.0% |
   Communicate to 1D:                0.897     0.897   0.0% |
   Communicate to 2D:                1.195     1.195   0.0% |
   FFT 1D:                           0.981     0.981   0.0% |
   FFT 2D:                           1.630     1.630   0.0% |
  XC 3D grid:                        3.989     3.989   0.1% |
  vbar:                              1.104     1.104   0.0% |
 LCAO eigensolver:                3979.389     0.094   0.0% |
  Calculate projections:            13.260    13.260   0.3% |
  DenseAtomicCorrection:           101.958   101.958   2.3% ||
  Distribute overlap matrix:         0.059     0.059   0.0% |
  Orbital Layouts:                3735.862  3735.862  82.7% |--------------------------------|
  Potential matrix:                119.411   119.411   2.6% ||
  Sum over cells:                    8.744     8.744   0.2% |
ST tci:                              0.319     0.319   0.0% |
Set symmetry:                        0.001     0.001   0.0% |
TCI: Evaluate splines:               0.818     0.818   0.0% |
mktci:                               0.009     0.009   0.0% |
Other:                               1.882     1.882   0.0% |
-----------------------------------------------------------
Total:                                      4516.271 100.0%

Memory usage: 1.27 GiB
Date: Mon Feb 16 10:57:31 2026
