
  ___ ___ ___ _ _ _  
 |   |   |_  | | | | 
 | | | | | . | | | | 
 |__ |  _|___|_____|  25.7.0
 |___|_|             

User:   ubuntu@third-test
Date:   Wed Feb  4 09:31:26 2026
Arch:   x86_64
Pid:    3377469
CWD:    /mnt/vdd1/work/cemea/fairchem/src/fairchem/applications/ocx
Python: 3.10.16
gpaw:   /home/ubuntu/.pyenv/versions/cemea-env/lib/python3.10/site-packages/gpaw
_gpaw:  /home/ubuntu/.pyenv/versions/cemea-env/lib/python3.10/site-packages/
        _gpaw.cpython-310-x86_64-linux-gnu.so
ase:    /home/ubuntu/.pyenv/versions/cemea-env/lib/python3.10/site-packages/ase (version 3.27.0)
numpy:  /home/ubuntu/.pyenv/versions/cemea-env/lib/python3.10/site-packages/numpy (version 2.2.6)
scipy:  /home/ubuntu/.pyenv/versions/cemea-env/lib/python3.10/site-packages/scipy (version 1.15.3)
libxc:  2.x.y
units:  Angstrom and eV
cores: 1
OpenMP: False
OMP_NUM_THREADS: 1

Input parameters:
  basis: dzp
  convergence: {density: 0.0001,
                eigenstates: 1e-05,
                energy: 1e-05}
  kpts: [4 4 1]
  mode: lcao

System changes: positions, numbers, cell, pbc, initial_charges, initial_magmoms 

Initialize ...

species:
  Mo:
    name: Molybdenum
    id: ac24daaf086600a00ce6d19a74574df1
    Z: 42.0
    valence: 14
    core: 28
    charge: 0.0
    file: /home/ubuntu/.pyenv/versions/cemea-env/lib/python3.10/site-packages/gpaw_data/setups/Mo.LDA.gz
    compensation charges: {type: gauss,
                           rc: 0.38,
                           lmax: 2}
    cutoffs: {filter: 2.16,
              core: 1.42}
    projectors:
      #              energy  rcut
      - 4s(2.00)   -64.384   1.238
      - 5s(1.00)    -4.319   1.238
      - 4p(6.00)   -38.595   1.296
      - 5p(0.00)    -1.161   1.296
      - 4d(5.00)    -3.933   1.296
      -  d          23.278   1.296
  
    # LCAO basis set for Mo:
    #   Name: dzp
    #   File: /home/ubuntu/.pyenv/versions/cemea-env/lib/python3.10/site-packages/gpaw_data/setups/Mo.dzp.basis.gz
    #   Number of radial functions: 11
    #   Number of spherical harmonics: 29
    #     l=0, rc=3.5469 Bohr: 4s-sz confined orbital
    #     l=0, rc=10.0469 Bohr: 5s-sz confined orbital
    #     l=1, rc=4.0781 Bohr: 4p-sz confined orbital
    #     l=1, rc=14.0938 Bohr: 5p-sz confined orbital
    #     l=2, rc=7.2031 Bohr: 4d-sz confined orbital
    #     l=0, rc=2.1250 Bohr: 4s-dz split-valence wave
    #     l=0, rc=6.1250 Bohr: 5s-dz split-valence wave
    #     l=1, rc=2.5469 Bohr: 4p-dz split-valence wave
    #     l=1, rc=8.7656 Bohr: 5p-dz split-valence wave
    #     l=2, rc=4.2344 Bohr: 4d-dz split-valence wave
    #     l=1, rc=10.0469 Bohr: p-type Gaussian polarization
    #   Number of RI-basis functions 0

  S:
    name: Sulfur
    id: a5eb49d7597a2879c13719b04c71318f
    Z: 16.0
    valence: 6
    core: 10
    charge: 0.0
    file: /home/ubuntu/.pyenv/versions/cemea-env/lib/python3.10/site-packages/gpaw_data/setups/S.LDA.gz
    compensation charges: {type: gauss,
                           rc: 0.24,
                           lmax: 2}
    cutoffs: {filter: 1.77,
              core: 1.66}
    projectors:
      #              energy  rcut
      - 3s(2.00)   -17.278   0.974
      - 3p(4.00)    -7.106   0.979
      -  s           9.933   0.974
      -  p          20.105   0.979
      -  d           0.000   0.900
  
    # LCAO basis set for S:
    #   Name: dzp
    #   File: /home/ubuntu/.pyenv/versions/cemea-env/lib/python3.10/site-packages/gpaw_data/setups/S.dzp.basis.gz
    #   Number of radial functions: 5
    #   Number of spherical harmonics: 13
    #     l=0, rc=5.5156 Bohr: 3s-sz confined orbital
    #     l=1, rc=6.9375 Bohr: 3p-sz confined orbital
    #     l=0, rc=3.0469 Bohr: 3s-dz split-valence wave
    #     l=1, rc=3.9375 Bohr: 3p-dz split-valence wave
    #     l=2, rc=6.9375 Bohr: d-type Gaussian polarization
    #   Number of RI-basis functions 0

Reference energy: -526675.923698  # eV

Spin-paired calculation

Convergence criteria:
 Maximum [total energy] change in last 3 cyles: 1e-05 eV / valence electron
 Maximum integral of absolute [dens]ity change: 0.0001 electrons / valence electron
 Maximum integral of absolute [eigenst]ate change: 1e-05 eV^2 / valence electron
 Maximum number of scf [iter]ations: 333
 (Square brackets indicate name in SCF output, whereas a 'c' in
 the SCF output indicates the quantity has converged.)

Symmetries present (total): 12

  ( 1  1  0)  ( 1  1  0)  ( 1  0  0)  ( 1  0  0)  ( 0  1  0)  ( 0  1  0)
  ( 0 -1  0)  (-1  0  0)  ( 0  1  0)  (-1 -1  0)  ( 1  0  0)  (-1 -1  0)
  ( 0  0  1)  ( 0  0 -1)  ( 0  0  1)  ( 0  0 -1)  ( 0  0 -1)  ( 0  0  1)

  ( 0 -1  0)  ( 0 -1  0)  (-1  0  0)  (-1  0  0)  (-1 -1  0)  (-1 -1  0)
  ( 1  1  0)  (-1  0  0)  ( 1  1  0)  ( 0 -1  0)  ( 1  0  0)  ( 0  1  0)
  ( 0  0 -1)  ( 0  0  1)  ( 0  0  1)  ( 0  0 -1)  ( 0  0  1)  ( 0  0 -1)
Note: your k-points are not as symmetric as your crystal!

16 k-points: 4 x 4 x 1 Monkhorst-Pack grid
6 k-points in the irreducible part of the Brillouin zone
       k-points in crystal coordinates                weights
   0:     0.12500000   -0.12500000    0.00000000          2/16
   1:     0.12500000    0.12500000    0.00000000          2/16
   2:     0.37500000   -0.37500000    0.00000000          2/16
   3:     0.37500000   -0.12500000    0.00000000          4/16
   4:     0.37500000    0.12500000    0.00000000          4/16
   5:     0.37500000    0.37500000    0.00000000          2/16

Wave functions: LCAO
  Diagonalizer: Serial LAPACK
  Atomic Correction: dense with blas
  Data-type: complex
 

Occupation numbers: Fermi-Dirac:
  width: 0.1000  # eV
 

Eigensolver
   LCAO using direct dense diagonalizer 

Densities:
  Coarse grid: 28*28*96 grid
  Fine grid: 56*56*192 grid
  Total Charge: 0.000000 

Density mixing:
  Method: separate
  Backend: pulay
  Linear mixing parameter: 0.05
  old densities: 5
  Damping of long wavelength oscillations: 50 

Hamiltonian:
  XC and Coulomb potentials evaluated on a 56*56*192 grid
  Using the LDA Exchange-Correlation functional
  Interpolation: tri-quintic (5. degree polynomial)
  Poisson solver: FastPoissonSolver using
    Stencil: 8*3+1=25 point O(h^6) finite-difference Laplacian
    FFT axes: [np.int64(0), np.int64(1), np.int64(2)]
    FST axes: []
 

Memory estimate:
  Process memory now: 1225.76 MiB
  Calculator: 128.63 MiB
    Density: 55.13 MiB
      Arrays: 14.93 MiB
      Localized functions: 34.46 MiB
      Mixer: 5.74 MiB
    Hamiltonian: 12.25 MiB
      Arrays: 9.76 MiB
      XC: 0.00 MiB
      Poisson: 0.00 MiB
      vbar: 2.49 MiB
    Wavefunctions: 61.24 MiB
      C [qnM]: 1.35 MiB
      S, T [2 x qmm]: 8.86 MiB
      P [aqMi]: 0.22 MiB
      BasisFunctions: 50.81 MiB
      Eigensolver: 0.00 MiB

Total number of cores used: 1

Number of atoms: 12
Number of atomic orbitals: 220
Number of bands in calculation: 67
Number of valence electrons: 104
Bands to converge: occupied

... initialized

Initializing position-dependent things.

Density initialized from atomic densities
                                  
                                  
                                  
                                  
          S      S                
            S       S             
                                  
         Mo     Mo                
           MoS    Mo S            
                                  
               S       S          
                                  
                                  
                                  
                                  

Atomic positions and initial magnetic moments

Positions:
   0 Mo     0.000000    0.000000    9.475400    ( 0.0000,  0.0000,  0.0000)
   1 S     -0.000000    1.824427   10.950800    ( 0.0000,  0.0000,  0.0000)
   2 S      1.580000    0.912213    8.000000    ( 0.0000,  0.0000,  0.0000)
   3 Mo    -1.580000    2.736640    9.475400    ( 0.0000,  0.0000,  0.0000)
   4 S     -1.580000    4.561067   10.950800    ( 0.0000,  0.0000,  0.0000)
   5 S     -0.000000    3.648854    8.000000    ( 0.0000,  0.0000,  0.0000)
   6 Mo     3.160000    0.000000    9.475400    ( 0.0000,  0.0000,  0.0000)
   7 S      3.160000    1.824427   10.950800    ( 0.0000,  0.0000,  0.0000)
   8 S      4.740000    0.912213    8.000000    ( 0.0000,  0.0000,  0.0000)
   9 Mo     1.580000    2.736640    9.475400    ( 0.0000,  0.0000,  0.0000)
  10 S      1.580000    4.561067   10.950800    ( 0.0000,  0.0000,  0.0000)
  11 S      3.160000    3.648854    8.000000    ( 0.0000,  0.0000,  0.0000)

Unit cell:
           periodic     x           y           z      points  spacing
  1. axis:    yes    6.320000    0.000000    0.000000    28     0.1955
  2. axis:    yes   -3.160000    5.473281    0.000000    28     0.1955
  3. axis:    yes    0.000000    0.000000   18.950800    96     0.1974

  Lengths:   6.320000   6.320000  18.950800
  Angles:   90.000000  90.000000 120.000000

Effective grid spacing dv^(1/3) = 0.2057

     iter     time        total  log10-change:
                         energy   eigst   dens
iter:   1 09:31:31   -93.839742        c
iter:   2 09:31:42   -92.497978        c -1.22
iter:   3 09:31:54   -90.494172        c -1.27
iter:   4 09:32:05   -91.165652        c -1.36
iter:   5 09:32:16   -90.911859        c -1.43
iter:   6 09:32:27   -89.592945        c -1.49
iter:   7 09:32:39   -89.540331        c -2.07
iter:   8 09:32:50   -89.561157        c -2.44
iter:   9 09:33:02   -89.534541        c -2.28
iter:  10 09:33:13   -89.534470        c -3.45
iter:  11 09:33:24   -89.534489c       c -3.57
iter:  12 09:33:36   -89.534490c       c -3.67
iter:  13 09:33:48   -89.534505c       c -3.68
iter:  14 09:33:59   -89.534505c       c -4.06c

Converged after 14 iterations.

Dipole moment: (-1.282154, -2.220756, 0.000000) |e|*Ang

Energy contributions relative to reference atoms: (reference = -526675.923698)

Kinetic:       +104.429074
Potential:     -110.555266
External:        +0.000000
XC:             -83.486125
Entropy (-ST):   -0.150555
Local:           +0.153090
SIC:             +0.000000
--------------------------
Free energy:    -89.609782
Extrapolated:   -89.534505

Showing only first 2 kpts
 Kpt  Band  Eigenvalues  Occupancy
  0    50     -2.25554    2.00000
  0    51     -1.65498    1.99920
  0    52     -0.90866    1.18018
  0    53     -0.90609    1.16776

  1    50     -1.80029    1.99981
  1    51     -1.71504    1.99956
  1    52     -0.65708    0.20840
  1    53     -0.64936    0.19441


Fermi level: -0.87222

No gap
No difference between direct/indirect transitions
Timing:                              incl.     excl.
-----------------------------------------------------------
Basic WFS set positions:             0.002     0.002   0.0% |
Basis functions set positions:       0.059     0.059   0.0% |
LCAO WFS Initialize:                 0.234     0.040   0.0% |
 Hamiltonian:                        0.194     0.000   0.0% |
  Atomic:                            0.071     0.001   0.0% |
   XC Correction:                    0.070     0.070   0.0% |
  Calculate atomic Hamiltonians:     0.007     0.007   0.0% |
  Communicate:                       0.000     0.000   0.0% |
  Hartree integrate/restrict:        0.009     0.009   0.0% |
  Initialize Hamiltonian:            0.001     0.001   0.0% |
  Poisson:                           0.061     0.003   0.0% |
   Communicate from 1D:              0.010     0.010   0.0% |
   Communicate from 2D:              0.009     0.009   0.0% |
   Communicate to 1D:                0.008     0.008   0.0% |
   Communicate to 2D:                0.011     0.011   0.0% |
   FFT 1D:                           0.005     0.005   0.0% |
   FFT 2D:                           0.014     0.014   0.0% |
  XC 3D grid:                        0.029     0.029   0.0% |
  vbar:                              0.015     0.015   0.0% |
P tci:                               0.361     0.361   0.2% |
SCF-cycle:                         150.691     0.037   0.0% |
 Density:                          102.119     0.000   0.0% |
  Atomic density matrices:           0.042     0.042   0.0% |
  Mix:                               2.128     2.128   1.4% ||
  Multipole moments:                 0.003     0.003   0.0% |
  Normalize:                         0.001     0.001   0.0% |
  Pseudo density:                   99.944     0.006   0.0% |
   Calculate density matrix:         0.743     0.743   0.5% |
   Construct density:               99.051    99.051  64.9% |-------------------------|
   Symmetrize density:               0.143     0.143   0.1% |
 Hamiltonian:                        2.672     0.001   0.0% |
  Atomic:                            0.919     0.015   0.0% |
   XC Correction:                    0.904     0.904   0.6% |
  Calculate atomic Hamiltonians:     0.097     0.097   0.1% |
  Communicate:                       0.000     0.000   0.0% |
  Hartree integrate/restrict:        0.143     0.143   0.1% |
  Poisson:                           0.941     0.040   0.0% |
   Communicate from 1D:              0.158     0.158   0.1% |
   Communicate from 2D:              0.129     0.129   0.1% |
   Communicate to 1D:                0.161     0.161   0.1% |
   Communicate to 2D:                0.154     0.154   0.1% |
   FFT 1D:                           0.072     0.072   0.0% |
   FFT 2D:                           0.229     0.229   0.2% |
  XC 3D grid:                        0.422     0.422   0.3% |
  vbar:                              0.149     0.149   0.1% |
 LCAO eigensolver:                  45.863     0.011   0.0% |
  Calculate projections:             0.740     0.740   0.5% |
  DenseAtomicCorrection:             4.882     4.882   3.2% ||
  Distribute overlap matrix:         0.009     0.009   0.0% |
  Orbital Layouts:                  13.233    13.233   8.7% |--|
  Potential matrix:                 25.465    25.465  16.7% |------|
  Sum over cells:                    1.523     1.523   1.0% |
ST tci:                              0.296     0.296   0.2% |
Set symmetry:                        0.002     0.002   0.0% |
TCI: Evaluate splines:               0.267     0.267   0.2% |
mktci:                               0.008     0.008   0.0% |
Other:                               0.599     0.599   0.4% |
-----------------------------------------------------------
Total:                                       152.519 100.0%

Memory usage: 1.20 GiB
Date: Wed Feb  4 09:33:59 2026
