
  ___ ___ ___ _ _ _  
 |   |   |_  | | | | 
 | | | | | . | | | | 
 |__ |  _|___|_____|  25.7.0
 |___|_|             

User:   mikei@Z790-AORUS-ELITE-AX
Date:   Fri Feb 20 15:54:42 2026
Arch:   x86_64
Pid:    89048
CWD:    /home/mikei/Dokumenty/code/cemea/ocx
Python: 3.10.16
gpaw:   /home/mikei/.pyenv/versions/cemea-env/lib/python3.10/site-packages/gpaw
_gpaw:  /home/mikei/.pyenv/versions/cemea-env/lib/python3.10/site-packages/
        _gpaw.cpython-310-x86_64-linux-gnu.so
ase:    /home/mikei/.pyenv/versions/cemea-env/lib/python3.10/site-packages/ase (version 3.27.0)
numpy:  /home/mikei/.pyenv/versions/cemea-env/lib/python3.10/site-packages/numpy (version 2.2.6)
scipy:  /home/mikei/.pyenv/versions/cemea-env/lib/python3.10/site-packages/scipy (version 1.15.3)
libxc:  2.x.y
units:  Angstrom and eV
cores: 1
OpenMP: False
OMP_NUM_THREADS: 1

Input parameters:
  basis: dzp
  convergence: {density: 0.0001,
                eigenstates: 1e-05,
                energy: 1e-05}
  kpts: [4 4 1]
  mode: lcao

System changes: positions, numbers, cell, pbc, initial_charges, initial_magmoms 

Initialize ...

species:
  Mo:
    name: Molybdenum
    id: ac24daaf086600a00ce6d19a74574df1
    Z: 42.0
    valence: 14
    core: 28
    charge: 0.0
    file: /home/mikei/.pyenv/versions/cemea-env/lib/python3.10/site-packages/gpaw_data/setups/Mo.LDA.gz
    compensation charges: {type: gauss,
                           rc: 0.38,
                           lmax: 2}
    cutoffs: {filter: 2.16,
              core: 1.42}
    projectors:
      #              energy  rcut
      - 4s(2.00)   -64.384   1.238
      - 5s(1.00)    -4.319   1.238
      - 4p(6.00)   -38.595   1.296
      - 5p(0.00)    -1.161   1.296
      - 4d(5.00)    -3.933   1.296
      -  d          23.278   1.296
  
    # LCAO basis set for Mo:
    #   Name: dzp
    #   File: /home/mikei/.pyenv/versions/cemea-env/lib/python3.10/site-packages/gpaw_data/setups/Mo.dzp.basis.gz
    #   Number of radial functions: 11
    #   Number of spherical harmonics: 29
    #     l=0, rc=3.5469 Bohr: 4s-sz confined orbital
    #     l=0, rc=10.0469 Bohr: 5s-sz confined orbital
    #     l=1, rc=4.0781 Bohr: 4p-sz confined orbital
    #     l=1, rc=14.0938 Bohr: 5p-sz confined orbital
    #     l=2, rc=7.2031 Bohr: 4d-sz confined orbital
    #     l=0, rc=2.1250 Bohr: 4s-dz split-valence wave
    #     l=0, rc=6.1250 Bohr: 5s-dz split-valence wave
    #     l=1, rc=2.5469 Bohr: 4p-dz split-valence wave
    #     l=1, rc=8.7656 Bohr: 5p-dz split-valence wave
    #     l=2, rc=4.2344 Bohr: 4d-dz split-valence wave
    #     l=1, rc=10.0469 Bohr: p-type Gaussian polarization
    #   Number of RI-basis functions 0

  Ru:
    name: Ruthenium
    id: ee1c9ca112952e47c1459e90f4850566
    Z: 44.0
    valence: 16
    core: 28
    charge: 0.0
    file: /home/mikei/.pyenv/versions/cemea-env/lib/python3.10/site-packages/gpaw_data/setups/Ru.LDA.gz
    compensation charges: {type: gauss,
                           rc: 0.39,
                           lmax: 2}
    cutoffs: {filter: 2.16,
              core: 1.30}
    projectors:
      #              energy  rcut
      - 4s(2.00)   -76.385   1.281
      - 5s(1.00)    -4.507   1.281
      - 4p(6.00)   -46.536   1.286
      - 5p(0.00)    -1.033   1.286
      - 4d(7.00)    -5.402   1.254
      -  d          21.810   1.254
  
    # LCAO basis set for Ru:
    #   Name: dzp
    #   File: /home/mikei/.pyenv/versions/cemea-env/lib/python3.10/site-packages/gpaw_data/setups/Ru.dzp.basis.gz
    #   Number of radial functions: 11
    #   Number of spherical harmonics: 29
    #     l=0, rc=3.2969 Bohr: 4s-sz confined orbital
    #     l=0, rc=9.6875 Bohr: 5s-sz confined orbital
    #     l=1, rc=3.7656 Bohr: 4p-sz confined orbital
    #     l=1, rc=14.0938 Bohr: 5p-sz confined orbital
    #     l=2, rc=6.3281 Bohr: 4d-sz confined orbital
    #     l=0, rc=2.0781 Bohr: 4s-dz split-valence wave
    #     l=0, rc=5.8281 Bohr: 5s-dz split-valence wave
    #     l=1, rc=2.4219 Bohr: 4p-dz split-valence wave
    #     l=1, rc=8.7031 Bohr: 5p-dz split-valence wave
    #     l=2, rc=3.7500 Bohr: 4d-dz split-valence wave
    #     l=1, rc=9.6875 Bohr: p-type Gaussian polarization
    #   Number of RI-basis functions 0

  C:
    name: Carbon
    id: d60576a1f549371a163e72552ca58787
    Z: 6.0
    valence: 4
    core: 2
    charge: 0.0
    file: /home/mikei/.pyenv/versions/cemea-env/lib/python3.10/site-packages/gpaw_data/setups/C.LDA.gz
    compensation charges: {type: gauss,
                           rc: 0.20,
                           lmax: 2}
    cutoffs: {filter: 1.14,
              core: 1.14}
    projectors:
      #              energy  rcut
      - 2s(2.00)   -13.639   0.635
      - 2p(2.00)    -5.414   0.635
      -  s          13.573   0.635
      -  p          21.797   0.635
      -  d           0.000   0.635
  
    # LCAO basis set for C:
    #   Name: dzp
    #   File: /home/mikei/.pyenv/versions/cemea-env/lib/python3.10/site-packages/gpaw_data/setups/C.dzp.basis.gz
    #   Number of radial functions: 5
    #   Number of spherical harmonics: 13
    #     l=0, rc=5.5469 Bohr: 2s-sz confined orbital
    #     l=1, rc=6.6719 Bohr: 2p-sz confined orbital
    #     l=0, rc=3.0312 Bohr: 2s-dz split-valence wave
    #     l=1, rc=3.7500 Bohr: 2p-dz split-valence wave
    #     l=2, rc=6.6719 Bohr: d-type Gaussian polarization
    #   Number of RI-basis functions 0

  H:
    name: Hydrogen
    id: 4766778ce56282eaa64abeb28b7c1de3
    Z: 1.0
    valence: 1
    core: 0
    charge: 0.0
    file: /home/mikei/.pyenv/versions/cemea-env/lib/python3.10/site-packages/gpaw_data/setups/H.LDA.gz
    compensation charges: {type: gauss,
                           rc: 0.15,
                           lmax: 2}
    cutoffs: {filter: 0.85,
              core: 0.53}
    projectors:
      #              energy  rcut
      - 1s(1.00)    -6.353   0.476
      -  s          20.858   0.476
      -  p           0.000   0.476
  
    # LCAO basis set for H:
    #   Name: dzp
    #   File: /home/mikei/.pyenv/versions/cemea-env/lib/python3.10/site-packages/gpaw_data/setups/H.dzp.basis.gz
    #   Number of radial functions: 3
    #   Number of spherical harmonics: 5
    #     l=0, rc=6.4219 Bohr: 1s-sz confined orbital
    #     l=0, rc=3.6094 Bohr: 1s-dz split-valence wave
    #     l=1, rc=6.4219 Bohr: p-type Gaussian polarization
    #   Number of RI-basis functions 0

Reference energy: -897349.445328  # eV

Spin-paired calculation

Convergence criteria:
 Maximum [total energy] change in last 3 cyles: 1e-05 eV / valence electron
 Maximum integral of absolute [dens]ity change: 0.0001 electrons / valence electron
 Maximum integral of absolute [eigenst]ate change: 1e-05 eV^2 / valence electron
 Maximum number of scf [iter]ations: 333
 (Square brackets indicate name in SCF output, whereas a 'c' in
 the SCF output indicates the quantity has converged.)

Symmetries present (total): 2

  ( 1  0  0)  ( 0  1  0)
  ( 0  1  0)  ( 1  0  0)
  ( 0  0  1)  ( 0  0  1)

16 k-points: 4 x 4 x 1 Monkhorst-Pack grid
6 k-points in the irreducible part of the Brillouin zone
       k-points in crystal coordinates                weights
   0:     0.12500000   -0.12500000    0.00000000          2/16
   1:     0.12500000    0.12500000    0.00000000          2/16
   2:     0.37500000   -0.37500000    0.00000000          2/16
   3:     0.37500000   -0.12500000    0.00000000          4/16
   4:     0.37500000    0.12500000    0.00000000          4/16
   5:     0.37500000    0.37500000    0.00000000          2/16

Wave functions: LCAO
  Diagonalizer: Serial LAPACK
  Atomic Correction: dense with blas
  Data-type: complex
 

Occupation numbers: Fermi-Dirac:
  width: 0.1000  # eV
 

Eigensolver
   LCAO using direct dense diagonalizer 

Densities:
  Coarse grid: 40*40*92 grid
  Fine grid: 80*80*184 grid
  Total Charge: 0.000000 

Density mixing:
  Method: separate
  Backend: pulay
  Linear mixing parameter: 0.05
  old densities: 5
  Damping of long wavelength oscillations: 50 

Hamiltonian:
  XC and Coulomb potentials evaluated on a 80*80*184 grid
  Using the LDA Exchange-Correlation functional
  Interpolation: tri-quintic (5. degree polynomial)
  Poisson solver: FastPoissonSolver using
    Stencil: 6*3+1=19 point O(h^6) finite-difference Laplacian
    FFT axes: [np.int64(0), np.int64(1), np.int64(2)]
    FST axes: []
 

Memory estimate:
  Process memory now: 2222.55 MiB
  Calculator: 205.65 MiB
    Density: 81.45 MiB
      Arrays: 29.20 MiB
      Localized functions: 41.02 MiB
      Mixer: 11.23 MiB
    Hamiltonian: 21.76 MiB
      Arrays: 19.09 MiB
      XC: 0.00 MiB
      Poisson: 0.00 MiB
      vbar: 2.67 MiB
    Wavefunctions: 102.44 MiB
      C [qnM]: 2.20 MiB
      S, T [2 x qmm]: 15.29 MiB
      P [aqMi]: 0.33 MiB
      BasisFunctions: 84.62 MiB
      Eigensolver: 0.00 MiB

Total number of cores used: 1

Number of atoms: 13
Number of atomic orbitals: 289
Number of bands in calculation: 83
Number of valence electrons: 131
Bands to converge: occupied

... initialized

Initializing position-dependent things.

Density initialized from atomic densities
      .-------------------.  
     /|                   |  
    / |                   |  
   /  |                   |  
  /   |                   |  
 *    |                   |  
 |    |                   |  
 |    |                   |  
 |    |                   |  
 |    |                   |  
 |    |                   |  
 |    |   MH        Mo    |  
 |    |                   |  
 |    |Ru        Mo       |  
 |    |   C         C     |  
 |  Mo|       Mo          |  
 |    |C         C        |  
 Mo   |    Mo             |  
 |    |                   |  
 |    |                   |  
 |    |                   |  
 |    |                   |  
 |    .-------------------.  
 |   /                   /   
 |  /                   /    
 | /                   /     
 |/                   /      
 *-------------------*       

Atomic positions and initial magnetic moments

Positions:
   0 Mo     0.000000    0.000000    8.000000    ( 0.0000,  0.0000,  0.0000)
   1 Ru     2.060000    2.060000   10.060000    ( 0.0000,  0.0000,  0.0000)
   2 C      2.060000    2.060000    8.000000    ( 0.0000,  0.0000,  0.0000)
   3 Mo     0.000000    4.120000    8.000000    ( 0.0000,  0.0000,  0.0000)
   4 Mo     2.060000    6.180000   10.060000    ( 0.0000,  0.0000,  0.0000)
   5 C      2.060000    6.180000    8.000000    ( 0.0000,  0.0000,  0.0000)
   6 Mo     4.120000    0.000000    8.000000    ( 0.0000,  0.0000,  0.0000)
   7 Mo     6.180000    2.060000   10.060000    ( 0.0000,  0.0000,  0.0000)
   8 C      6.180000    2.060000    8.000000    ( 0.0000,  0.0000,  0.0000)
   9 Mo     4.120000    4.120000    8.000000    ( 0.0000,  0.0000,  0.0000)
  10 Mo     6.180000    6.180000   10.060000    ( 0.0000,  0.0000,  0.0000)
  11 C      6.180000    6.180000    8.000000    ( 0.0000,  0.0000,  0.0000)
  12 H      3.433333    3.433333   11.560000    ( 0.0000,  0.0000,  0.0000)

Unit cell:
           periodic     x           y           z      points  spacing
  1. axis:    yes    8.240000    0.000000    0.000000    40     0.2060
  2. axis:    yes    0.000000    8.240000    0.000000    40     0.2060
  3. axis:    yes    0.000000    0.000000   18.060000    92     0.1963

  Lengths:   8.240000   8.240000  18.060000
  Angles:   90.000000  90.000000  90.000000

Effective grid spacing dv^(1/3) = 0.2027

     iter     time        total  log10-change:
                         energy   eigst   dens
iter:   1 15:54:49  -100.191495        c
iter:   2 15:54:57   -90.438883        c -0.83
iter:   3 15:55:07   -86.499608        c -0.97
iter:   4 15:55:17   -82.639774        c -1.04
iter:   5 15:55:25   -81.597322        c -1.20
iter:   6 15:55:36   -80.829389        c -1.27
iter:   7 15:55:44   -80.045764        c -1.35
iter:   8 15:55:52   -79.974889        c -1.64
iter:   9 15:56:00   -79.912564        c -1.78
iter:  10 15:56:10   -79.904082        c -1.84
iter:  11 15:56:20   -79.878286        c -1.88
iter:  12 15:56:27   -79.855957        c -1.96
iter:  13 15:56:48   -79.840942        c -2.06
iter:  14 15:56:56   -79.826576        c -2.13
iter:  15 15:57:04   -79.811672        c -2.16
iter:  16 15:57:15   -79.806397        c -2.28
iter:  17 15:57:25   -79.803693        c -2.36
iter:  18 15:57:33   -79.802121        c -2.44
iter:  19 15:57:42   -79.801387        c -2.52
iter:  20 15:57:52   -79.800743        c -2.60
iter:  21 15:58:01   -79.799475        c -2.65
iter:  22 15:58:08   -79.798565        c -2.73
iter:  23 15:58:19   -79.797455        c -2.82
iter:  24 15:58:26   -79.796819        c -2.80
iter:  25 15:58:35   -79.796668c       c -2.98
iter:  26 15:58:46   -79.796377c       c -3.07
iter:  27 15:58:57   -79.796216c       c -3.12
iter:  28 15:59:13   -79.796411c       c -3.15
iter:  29 15:59:21   -79.796301c       c -3.21
iter:  30 15:59:30   -79.796224c       c -3.29
iter:  31 15:59:38   -79.796311c       c -3.26
iter:  32 15:59:49   -79.796288c       c -3.40
iter:  33 15:59:59   -79.796289c       c -3.48
iter:  34 16:00:07   -79.796315c       c -3.53
iter:  35 16:00:14   -79.796348c       c -3.63
iter:  36 16:00:21   -79.796286c       c -3.74
iter:  37 16:00:34   -79.796350c       c -3.68
iter:  38 16:00:44   -79.796341c       c -3.88
iter:  39 16:00:55   -79.796334c       c -3.94
iter:  40 16:01:08   -79.796322c       c -4.04c

Converged after 40 iterations.

Dipole moment: (-5.179860, -5.179860, 0.248839) |e|*Ang

Energy contributions relative to reference atoms: (reference = -897349.445328)

Kinetic:       -213.790086
Potential:     +146.723783
External:        +0.000000
XC:             -13.192336
Entropy (-ST):   -1.116803
Local:           +1.020719
SIC:             +0.000000
--------------------------
Free energy:    -80.354724
Extrapolated:   -79.796322

Showing only first 2 kpts
 Kpt  Band  Eigenvalues  Occupancy
  0    63     -2.33097    1.15657
  0    64     -2.30729    1.03941
  0    65     -2.23340    0.68150
  0    66     -2.17146    0.43531

  1    63     -2.32970    1.15037
  1    64     -2.28431    0.92468
  1    65     -2.26933    0.85079
  1    66     -2.17786    0.45750


Fermi level: -2.29940

No gap
No difference between direct/indirect transitions
Timing:                              incl.     excl.
-----------------------------------------------------------
Basic WFS set positions:             0.000     0.000   0.0% |
Basis functions set positions:       0.065     0.065   0.0% |
LCAO WFS Initialize:                 0.214     0.029   0.0% |
 Hamiltonian:                        0.185     0.000   0.0% |
  Atomic:                            0.056     0.001   0.0% |
   XC Correction:                    0.056     0.056   0.0% |
  Calculate atomic Hamiltonians:     0.005     0.005   0.0% |
  Communicate:                       0.000     0.000   0.0% |
  Hartree integrate/restrict:        0.005     0.005   0.0% |
  Initialize Hamiltonian:            0.001     0.001   0.0% |
  Poisson:                           0.069     0.005   0.0% |
   Communicate from 1D:              0.006     0.006   0.0% |
   Communicate from 2D:              0.007     0.007   0.0% |
   Communicate to 1D:                0.007     0.007   0.0% |
   Communicate to 2D:                0.008     0.008   0.0% |
   FFT 1D:                           0.013     0.013   0.0% |
   FFT 2D:                           0.022     0.022   0.0% |
  XC 3D grid:                        0.044     0.044   0.0% |
  vbar:                              0.005     0.005   0.0% |
P tci:                               0.208     0.208   0.1% |
SCF-cycle:                         384.231     0.052   0.0% |
 Density:                          190.023     0.000   0.0% |
  Atomic density matrices:           0.046     0.046   0.0% |
  Mix:                               3.889     3.889   1.0% |
  Multipole moments:                 0.004     0.004   0.0% |
  Normalize:                         0.002     0.002   0.0% |
  Pseudo density:                  186.083     0.011   0.0% |
   Calculate density matrix:         0.906     0.906   0.2% |
   Construct density:              185.033   185.033  47.9% |------------------|
   Symmetrize density:               0.133     0.133   0.0% |
 Hamiltonian:                        8.727     0.002   0.0% |
  Atomic:                            2.480     0.031   0.0% |
   XC Correction:                    2.449     2.449   0.6% |
  Calculate atomic Hamiltonians:     0.222     0.222   0.1% |
  Communicate:                       0.000     0.000   0.0% |
  Hartree integrate/restrict:        0.227     0.227   0.1% |
  Poisson:                           2.513     0.189   0.0% |
   Communicate from 1D:              0.255     0.255   0.1% |
   Communicate from 2D:              0.264     0.264   0.1% |
   Communicate to 1D:                0.232     0.232   0.1% |
   Communicate to 2D:                0.275     0.275   0.1% |
   FFT 1D:                           0.453     0.453   0.1% |
   FFT 2D:                           0.844     0.844   0.2% |
  XC 3D grid:                        2.892     2.892   0.7% |
  vbar:                              0.391     0.391   0.1% |
 LCAO eigensolver:                 185.429     0.046   0.0% |
  Calculate projections:            11.761    11.761   3.0% ||
  DenseAtomicCorrection:            13.075    13.075   3.4% ||
  Distribute overlap matrix:         0.037     0.037   0.0% |
  Orbital Layouts:                 126.847   126.847  32.9% |------------|
  Potential matrix:                 31.709    31.709   8.2% |--|
  Sum over cells:                    1.954     1.954   0.5% |
ST tci:                              0.132     0.132   0.0% |
Set symmetry:                        0.000     0.000   0.0% |
TCI: Evaluate splines:               0.418     0.418   0.1% |
mktci:                               0.004     0.004   0.0% |
Other:                               0.782     0.782   0.2% |
-----------------------------------------------------------
Total:                                       386.055 100.0%

Memory usage: 2.17 GiB
Date: Fri Feb 20 16:01:08 2026
