
  ___ ___ ___ _ _ _  
 |   |   |_  | | | | 
 | | | | | . | | | | 
 |__ |  _|___|_____|  25.7.0
 |___|_|             

User:   ubuntu@third-test
Date:   Tue Feb 17 11:15:21 2026
Arch:   x86_64
Pid:    2718679
CWD:    /mnt/vdd1/work/cemea/fairchem/src/fairchem/applications/ocx/mo_h_adsorption_workflow
Python: 3.10.16
gpaw:   /home/ubuntu/.pyenv/versions/cemea-env/lib/python3.10/site-packages/gpaw
_gpaw:  /home/ubuntu/.pyenv/versions/cemea-env/lib/python3.10/site-packages/
        _gpaw.cpython-310-x86_64-linux-gnu.so
ase:    /home/ubuntu/.pyenv/versions/cemea-env/lib/python3.10/site-packages/ase (version 3.27.0)
numpy:  /home/ubuntu/.pyenv/versions/cemea-env/lib/python3.10/site-packages/numpy (version 2.2.6)
scipy:  /home/ubuntu/.pyenv/versions/cemea-env/lib/python3.10/site-packages/scipy (version 1.15.3)
libxc:  2.x.y
units:  Angstrom and eV
cores: 1
OpenMP: False
OMP_NUM_THREADS: 1

Input parameters:
  basis: dzp
  convergence: {density: 0.0001,
                eigenstates: 1e-05,
                energy: 1e-05}
  kpts: [4 4 1]
  mode: lcao

System changes: positions, numbers, cell, pbc, initial_charges, initial_magmoms 

Initialize ...

species:
  Mo:
    name: Molybdenum
    id: ac24daaf086600a00ce6d19a74574df1
    Z: 42.0
    valence: 14
    core: 28
    charge: 0.0
    file: /home/ubuntu/.pyenv/versions/cemea-env/lib/python3.10/site-packages/gpaw_data/setups/Mo.LDA.gz
    compensation charges: {type: gauss,
                           rc: 0.38,
                           lmax: 2}
    cutoffs: {filter: 2.16,
              core: 1.42}
    projectors:
      #              energy  rcut
      - 4s(2.00)   -64.384   1.238
      - 5s(1.00)    -4.319   1.238
      - 4p(6.00)   -38.595   1.296
      - 5p(0.00)    -1.161   1.296
      - 4d(5.00)    -3.933   1.296
      -  d          23.278   1.296
  
    # LCAO basis set for Mo:
    #   Name: dzp
    #   File: /home/ubuntu/.pyenv/versions/cemea-env/lib/python3.10/site-packages/gpaw_data/setups/Mo.dzp.basis.gz
    #   Number of radial functions: 11
    #   Number of spherical harmonics: 29
    #     l=0, rc=3.5469 Bohr: 4s-sz confined orbital
    #     l=0, rc=10.0469 Bohr: 5s-sz confined orbital
    #     l=1, rc=4.0781 Bohr: 4p-sz confined orbital
    #     l=1, rc=14.0938 Bohr: 5p-sz confined orbital
    #     l=2, rc=7.2031 Bohr: 4d-sz confined orbital
    #     l=0, rc=2.1250 Bohr: 4s-dz split-valence wave
    #     l=0, rc=6.1250 Bohr: 5s-dz split-valence wave
    #     l=1, rc=2.5469 Bohr: 4p-dz split-valence wave
    #     l=1, rc=8.7656 Bohr: 5p-dz split-valence wave
    #     l=2, rc=4.2344 Bohr: 4d-dz split-valence wave
    #     l=1, rc=10.0469 Bohr: p-type Gaussian polarization
    #   Number of RI-basis functions 0

  Pt:
    name: Platinum
    id: 5a6399afde4becbffda6f57f3efd9534
    Z: 78.0
    valence: 16
    core: 62
    charge: 0.0
    file: /home/ubuntu/.pyenv/versions/cemea-env/lib/python3.10/site-packages/gpaw_data/setups/Pt.LDA.gz
    compensation charges: {type: gauss,
                           rc: 0.41,
                           lmax: 2}
    cutoffs: {filter: 2.26,
              core: 2.26}
    projectors:
      #              energy  rcut
      - 6s(1.00)    -5.930   1.307
      - 5p(6.00)   -56.318   1.371
      - 6p(0.00)    -0.962   1.371
      - 5d(9.00)    -6.387   1.307
      -  s          21.281   1.307
      -  d          20.825   1.307
  
    # LCAO basis set for Pt:
    #   Name: dzp
    #   File: /home/ubuntu/.pyenv/versions/cemea-env/lib/python3.10/site-packages/gpaw_data/setups/Pt.dzp.basis.gz
    #   Number of radial functions: 9
    #   Number of spherical harmonics: 27
    #     l=0, rc=8.5938 Bohr: 6s-sz confined orbital
    #     l=1, rc=3.5781 Bohr: 5p-sz confined orbital
    #     l=1, rc=13.6250 Bohr: 6p-sz confined orbital
    #     l=2, rc=6.0938 Bohr: 5d-sz confined orbital
    #     l=0, rc=5.0625 Bohr: 6s-dz split-valence wave
    #     l=1, rc=2.4219 Bohr: 5p-dz split-valence wave
    #     l=1, rc=8.3281 Bohr: 6p-dz split-valence wave
    #     l=2, rc=3.6406 Bohr: 5d-dz split-valence wave
    #     l=1, rc=8.5938 Bohr: p-type Gaussian polarization
    #   Number of RI-basis functions 0

  N:
    name: Nitrogen
    id: c467cdfa1b75f62c8f7a0469921b1cfb
    Z: 7.0
    valence: 5
    core: 2
    charge: 0.0
    file: /home/ubuntu/.pyenv/versions/cemea-env/lib/python3.10/site-packages/gpaw_data/setups/N.LDA.gz
    compensation charges: {type: gauss,
                           rc: 0.18,
                           lmax: 2}
    cutoffs: {filter: 1.11,
              core: 0.96}
    projectors:
      #              energy  rcut
      - 2s(2.00)   -18.420   0.603
      - 2p(3.00)    -7.237   0.529
      -  s           8.791   0.603
      -  p          19.974   0.529
      -  d           0.000   0.577
  
    # LCAO basis set for N:
    #   Name: dzp
    #   File: /home/ubuntu/.pyenv/versions/cemea-env/lib/python3.10/site-packages/gpaw_data/setups/N.dzp.basis.gz
    #   Number of radial functions: 5
    #   Number of spherical harmonics: 13
    #     l=0, rc=4.8594 Bohr: 2s-sz confined orbital
    #     l=1, rc=6.0625 Bohr: 2p-sz confined orbital
    #     l=0, rc=2.6094 Bohr: 2s-dz split-valence wave
    #     l=1, rc=3.2656 Bohr: 2p-dz split-valence wave
    #     l=2, rc=6.0625 Bohr: d-type Gaussian polarization
    #   Number of RI-basis functions 0

Reference energy: -1276118.937906  # eV

Spin-paired calculation

Convergence criteria:
 Maximum [total energy] change in last 3 cyles: 1e-05 eV / valence electron
 Maximum integral of absolute [dens]ity change: 0.0001 electrons / valence electron
 Maximum integral of absolute [eigenst]ate change: 1e-05 eV^2 / valence electron
 Maximum number of scf [iter]ations: 333
 (Square brackets indicate name in SCF output, whereas a 'c' in
 the SCF output indicates the quantity has converged.)

Symmetries present (total): 2

  ( 1  0  0)  ( 0  1  0)
  ( 0  1  0)  ( 1  0  0)
  ( 0  0  1)  ( 0  0  1)

16 k-points: 4 x 4 x 1 Monkhorst-Pack grid
6 k-points in the irreducible part of the Brillouin zone
       k-points in crystal coordinates                weights
   0:     0.12500000   -0.12500000    0.00000000          2/16
   1:     0.12500000    0.12500000    0.00000000          2/16
   2:     0.37500000   -0.37500000    0.00000000          2/16
   3:     0.37500000   -0.12500000    0.00000000          4/16
   4:     0.37500000    0.12500000    0.00000000          4/16
   5:     0.37500000    0.37500000    0.00000000          2/16

Wave functions: LCAO
  Diagonalizer: Serial LAPACK
  Atomic Correction: dense with blas
  Data-type: complex
 

Occupation numbers: Fermi-Dirac:
  width: 0.1000  # eV
 

Eigensolver
   LCAO using direct dense diagonalizer 

Densities:
  Coarse grid: 40*40*92 grid
  Fine grid: 80*80*184 grid
  Total Charge: 0.000000 

Density mixing:
  Method: separate
  Backend: pulay
  Linear mixing parameter: 0.05
  old densities: 5
  Damping of long wavelength oscillations: 50 

Hamiltonian:
  XC and Coulomb potentials evaluated on a 80*80*184 grid
  Using the LDA Exchange-Correlation functional
  Interpolation: tri-quintic (5. degree polynomial)
  Poisson solver: FastPoissonSolver using
    Stencil: 6*3+1=19 point O(h^6) finite-difference Laplacian
    FFT axes: [np.int64(0), np.int64(1), np.int64(2)]
    FST axes: []
 

Memory estimate:
  Process memory now: 1340.54 MiB
  Calculator: 199.20 MiB
    Density: 81.06 MiB
      Arrays: 29.20 MiB
      Localized functions: 40.63 MiB
      Mixer: 11.23 MiB
    Hamiltonian: 21.72 MiB
      Arrays: 19.09 MiB
      XC: 0.00 MiB
      Poisson: 0.00 MiB
      vbar: 2.63 MiB
    Wavefunctions: 96.41 MiB
      C [qnM]: 2.19 MiB
      S, T [2 x qmm]: 14.56 MiB
      P [aqMi]: 0.32 MiB
      BasisFunctions: 79.34 MiB
      Eigensolver: 0.00 MiB

Total number of cores used: 1

Number of atoms: 12
Number of atomic orbitals: 282
Number of bands in calculation: 85
Number of valence electrons: 134
Bands to converge: occupied

... initialized

Initializing position-dependent things.

Density initialized from atomic densities
      .-------------------.  
     /|                   |  
    / |                   |  
   /  |                   |  
  /   |                   |  
 *    |                   |  
 |    |                   |  
 |    |                   |  
 |    |                   |  
 |    |                   |  
 |    |                   |  
 |    |   Mo        Mo    |  
 |    |                   |  
 |    |Pt        Mo       |  
 |    |   N         N     |  
 |  Mo|       Mo          |  
 |    |N         N        |  
 Mo   |    Mo             |  
 |    |                   |  
 |    |                   |  
 |    |                   |  
 |    |                   |  
 |    .-------------------.  
 |   /                   /   
 |  /                   /    
 | /                   /     
 |/                   /      
 *-------------------*       

Atomic positions and initial magnetic moments

Positions:
   0 Mo     0.000000    0.000000    8.000000    ( 0.0000,  0.0000,  0.0000)
   1 Pt     2.080000    2.080000   10.080000    ( 0.0000,  0.0000,  0.0000)
   2 N      2.080000    2.080000    8.000000    ( 0.0000,  0.0000,  0.0000)
   3 Mo     0.000000    4.160000    8.000000    ( 0.0000,  0.0000,  0.0000)
   4 Mo     2.080000    6.240000   10.080000    ( 0.0000,  0.0000,  0.0000)
   5 N      2.080000    6.240000    8.000000    ( 0.0000,  0.0000,  0.0000)
   6 Mo     4.160000    0.000000    8.000000    ( 0.0000,  0.0000,  0.0000)
   7 Mo     6.240000    2.080000   10.080000    ( 0.0000,  0.0000,  0.0000)
   8 N      6.240000    2.080000    8.000000    ( 0.0000,  0.0000,  0.0000)
   9 Mo     4.160000    4.160000    8.000000    ( 0.0000,  0.0000,  0.0000)
  10 Mo     6.240000    6.240000   10.080000    ( 0.0000,  0.0000,  0.0000)
  11 N      6.240000    6.240000    8.000000    ( 0.0000,  0.0000,  0.0000)

Unit cell:
           periodic     x           y           z      points  spacing
  1. axis:    yes    8.320000    0.000000    0.000000    40     0.2080
  2. axis:    yes    0.000000    8.320000    0.000000    40     0.2080
  3. axis:    yes    0.000000    0.000000   18.080000    92     0.1965

  Lengths:   8.320000   8.320000  18.080000
  Angles:   90.000000  90.000000  90.000000

Effective grid spacing dv^(1/3) = 0.2041

     iter     time        total  log10-change:
                         energy   eigst   dens
iter:   1 11:16:28   -88.356063        c
iter:   2 11:17:50   -82.043983        c -0.88
iter:   3 11:19:15   -79.514505        c -1.01
iter:   4 11:20:40   -75.757876        c -1.02
iter:   5 11:22:08   -74.564880        c -1.18
iter:   6 11:23:21   -72.703554        c -1.25
iter:   7 11:24:44   -72.305914        c -1.47
iter:   8 11:26:06   -72.266423        c -1.76
iter:   9 11:27:19   -72.218743        c -1.79
iter:  10 11:28:43   -72.193610        c -1.89
iter:  11 11:30:06   -72.108640        c -1.90
iter:  12 11:31:26   -72.107998        c -2.14
iter:  13 11:32:51   -72.108681c       c -2.24
iter:  14 11:34:11   -72.102835        c -2.30
iter:  15 11:35:34   -72.092876        c -2.43
iter:  16 11:36:58   -72.090165        c -2.50
iter:  17 11:38:27   -72.089724        c -2.91
iter:  18 11:39:52   -72.089692c       c -2.91
iter:  19 11:41:15   -72.089977c       c -3.06
iter:  20 11:42:40   -72.090388c       c -3.23
iter:  21 11:43:58   -72.090895c       c -3.33
iter:  22 11:45:17   -72.090688c       c -3.35
iter:  23 11:46:44   -72.090761c       c -3.40
iter:  24 11:47:59   -72.090669c       c -3.60
iter:  25 11:49:12   -72.090629c       c -3.62
iter:  26 11:50:14   -72.090610c       c -3.72
iter:  27 11:51:30   -72.090539c       c -3.87
iter:  28 11:52:49   -72.090546c       c -4.02c

Converged after 28 iterations.

Dipole moment: (-5.110462, -5.110462, 0.346338) |e|*Ang

Energy contributions relative to reference atoms: (reference = -1276118.937906)

Kinetic:       -194.628322
Potential:     +132.776216
External:        +0.000000
XC:             -11.639363
Entropy (-ST):   -1.389705
Local:           +2.095775
SIC:             +0.000000
--------------------------
Free energy:    -72.785399
Extrapolated:   -72.090546

Showing only first 2 kpts
 Kpt  Band  Eigenvalues  Occupancy
  0    65     -2.12731    1.15913
  0    66     -2.08667    0.95734
  0    67     -2.08192    0.93365
  0    68     -2.05235    0.78892

  1    65     -2.12731    1.15913
  1    66     -2.08667    0.95734
  1    67     -2.08192    0.93365
  1    68     -2.05235    0.78892


Fermi level: -2.09521

No gap
No difference between direct/indirect transitions
Timing:                              incl.     excl.
-----------------------------------------------------------
Basic WFS set positions:             0.000     0.000   0.0% |
Basis functions set positions:       0.082     0.082   0.0% |
LCAO WFS Initialize:                 0.481     0.057   0.0% |
 Hamiltonian:                        0.424     0.000   0.0% |
  Atomic:                            0.104     0.001   0.0% |
   XC Correction:                    0.103     0.103   0.0% |
  Calculate atomic Hamiltonians:     0.024     0.024   0.0% |
  Communicate:                       0.000     0.000   0.0% |
  Hartree integrate/restrict:        0.048     0.048   0.0% |
  Initialize Hamiltonian:            0.000     0.000   0.0% |
  Poisson:                           0.130     0.007   0.0% |
   Communicate from 1D:              0.019     0.019   0.0% |
   Communicate from 2D:              0.017     0.017   0.0% |
   Communicate to 1D:                0.021     0.021   0.0% |
   Communicate to 2D:                0.021     0.021   0.0% |
   FFT 1D:                           0.018     0.018   0.0% |
   FFT 2D:                           0.027     0.027   0.0% |
  XC 3D grid:                        0.096     0.096   0.0% |
  vbar:                              0.022     0.022   0.0% |
P tci:                               0.436     0.436   0.0% |
SCF-cycle:                        2245.194     0.041   0.0% |
 Density:                          245.438     0.001   0.0% |
  Atomic density matrices:           0.086     0.086   0.0% |
  Mix:                               9.710     9.710   0.4% |
  Multipole moments:                 0.007     0.007   0.0% |
  Normalize:                         0.002     0.002   0.0% |
  Pseudo density:                  235.633     0.017   0.0% |
   Calculate density matrix:         5.260     5.260   0.2% |
   Construct density:              230.249   230.249  10.2% |---|
   Symmetrize density:               0.106     0.106   0.0% |
 Hamiltonian:                       10.015     0.002   0.0% |
  Atomic:                            2.287     0.030   0.0% |
   XC Correction:                    2.257     2.257   0.1% |
  Calculate atomic Hamiltonians:     0.222     0.222   0.0% |
  Communicate:                       0.000     0.000   0.0% |
  Hartree integrate/restrict:        1.025     1.025   0.0% |
  Poisson:                           3.721     0.196   0.0% |
   Communicate from 1D:              0.562     0.562   0.0% |
   Communicate from 2D:              0.518     0.518   0.0% |
   Communicate to 1D:                0.455     0.455   0.0% |
   Communicate to 2D:                0.641     0.641   0.0% |
   FFT 1D:                           0.512     0.512   0.0% |
   FFT 2D:                           0.837     0.837   0.0% |
  XC 3D grid:                        2.140     2.140   0.1% |
  vbar:                              0.618     0.618   0.0% |
 LCAO eigensolver:                1989.700     0.051   0.0% |
  Calculate projections:             5.414     5.414   0.2% |
  DenseAtomicCorrection:            29.741    29.741   1.3% ||
  Distribute overlap matrix:         0.028     0.028   0.0% |
  Orbital Layouts:                1891.002  1891.002  84.1% |---------------------------------|
  Potential matrix:                 58.578    58.578   2.6% ||
  Sum over cells:                    4.886     4.886   0.2% |
ST tci:                              0.291     0.291   0.0% |
Set symmetry:                        0.001     0.001   0.0% |
TCI: Evaluate splines:               0.682     0.682   0.0% |
mktci:                               0.007     0.007   0.0% |
Other:                               0.872     0.872   0.0% |
-----------------------------------------------------------
Total:                                      2248.047 100.0%

Memory usage: 1.31 GiB
Date: Tue Feb 17 11:52:49 2026
