
  ___ ___ ___ _ _ _  
 |   |   |_  | | | | 
 | | | | | . | | | | 
 |__ |  _|___|_____|  25.7.0
 |___|_|             

User:   ubuntu@third-test
Date:   Tue Feb 17 08:13:41 2026
Arch:   x86_64
Pid:    2718679
CWD:    /mnt/vdd1/work/cemea/fairchem/src/fairchem/applications/ocx/mo_h_adsorption_workflow
Python: 3.10.16
gpaw:   /home/ubuntu/.pyenv/versions/cemea-env/lib/python3.10/site-packages/gpaw
_gpaw:  /home/ubuntu/.pyenv/versions/cemea-env/lib/python3.10/site-packages/
        _gpaw.cpython-310-x86_64-linux-gnu.so
ase:    /home/ubuntu/.pyenv/versions/cemea-env/lib/python3.10/site-packages/ase (version 3.27.0)
numpy:  /home/ubuntu/.pyenv/versions/cemea-env/lib/python3.10/site-packages/numpy (version 2.2.6)
scipy:  /home/ubuntu/.pyenv/versions/cemea-env/lib/python3.10/site-packages/scipy (version 1.15.3)
libxc:  2.x.y
units:  Angstrom and eV
cores: 1
OpenMP: False
OMP_NUM_THREADS: 1

Input parameters:
  basis: dzp
  convergence: {density: 0.0001,
                eigenstates: 1e-05,
                energy: 1e-05}
  kpts: [4 4 1]
  mode: lcao

System changes: positions, numbers, cell, pbc, initial_charges, initial_magmoms 

Initialize ...

species:
  Mo:
    name: Molybdenum
    id: ac24daaf086600a00ce6d19a74574df1
    Z: 42.0
    valence: 14
    core: 28
    charge: 0.0
    file: /home/ubuntu/.pyenv/versions/cemea-env/lib/python3.10/site-packages/gpaw_data/setups/Mo.LDA.gz
    compensation charges: {type: gauss,
                           rc: 0.38,
                           lmax: 2}
    cutoffs: {filter: 2.16,
              core: 1.42}
    projectors:
      #              energy  rcut
      - 4s(2.00)   -64.384   1.238
      - 5s(1.00)    -4.319   1.238
      - 4p(6.00)   -38.595   1.296
      - 5p(0.00)    -1.161   1.296
      - 4d(5.00)    -3.933   1.296
      -  d          23.278   1.296
  
    # LCAO basis set for Mo:
    #   Name: dzp
    #   File: /home/ubuntu/.pyenv/versions/cemea-env/lib/python3.10/site-packages/gpaw_data/setups/Mo.dzp.basis.gz
    #   Number of radial functions: 11
    #   Number of spherical harmonics: 29
    #     l=0, rc=3.5469 Bohr: 4s-sz confined orbital
    #     l=0, rc=10.0469 Bohr: 5s-sz confined orbital
    #     l=1, rc=4.0781 Bohr: 4p-sz confined orbital
    #     l=1, rc=14.0938 Bohr: 5p-sz confined orbital
    #     l=2, rc=7.2031 Bohr: 4d-sz confined orbital
    #     l=0, rc=2.1250 Bohr: 4s-dz split-valence wave
    #     l=0, rc=6.1250 Bohr: 5s-dz split-valence wave
    #     l=1, rc=2.5469 Bohr: 4p-dz split-valence wave
    #     l=1, rc=8.7656 Bohr: 5p-dz split-valence wave
    #     l=2, rc=4.2344 Bohr: 4d-dz split-valence wave
    #     l=1, rc=10.0469 Bohr: p-type Gaussian polarization
    #   Number of RI-basis functions 0

  Ni:
    name: Nickel
    id: 1802175e8de9ea26d9f4394ec1a7d564
    Z: 28.0
    valence: 16
    core: 12
    charge: 0.0
    file: /home/ubuntu/.pyenv/versions/cemea-env/lib/python3.10/site-packages/gpaw_data/setups/Ni.LDA.gz
    compensation charges: {type: gauss,
                           rc: 0.36,
                           lmax: 2}
    cutoffs: {filter: 2.14,
              core: 1.98}
    projectors:
      #              energy  rcut
      - 4s(2.00)    -5.858   1.164
      - 3p(6.00)   -71.266   1.207
      - 4p(0.00)    -1.338   1.207
      - 3d(8.00)    -9.141   1.138
      -  s          21.353   1.164
      -  d          18.071   1.138
  
    # LCAO basis set for Ni:
    #   Name: dzp
    #   File: /home/ubuntu/.pyenv/versions/cemea-env/lib/python3.10/site-packages/gpaw_data/setups/Ni.dzp.basis.gz
    #   Number of radial functions: 9
    #   Number of spherical harmonics: 27
    #     l=0, rc=8.5156 Bohr: 4s-sz confined orbital
    #     l=1, rc=2.9375 Bohr: 3p-sz confined orbital
    #     l=1, rc=12.4062 Bohr: 4p-sz confined orbital
    #     l=2, rc=4.6875 Bohr: 3d-sz confined orbital
    #     l=0, rc=4.9688 Bohr: 4s-dz split-valence wave
    #     l=1, rc=2.0781 Bohr: 3p-dz split-valence wave
    #     l=1, rc=7.5469 Bohr: 4p-dz split-valence wave
    #     l=2, rc=2.9375 Bohr: 3d-dz split-valence wave
    #     l=1, rc=8.5156 Bohr: p-type Gaussian polarization
    #   Number of RI-basis functions 0

  N:
    name: Nitrogen
    id: c467cdfa1b75f62c8f7a0469921b1cfb
    Z: 7.0
    valence: 5
    core: 2
    charge: 0.0
    file: /home/ubuntu/.pyenv/versions/cemea-env/lib/python3.10/site-packages/gpaw_data/setups/N.LDA.gz
    compensation charges: {type: gauss,
                           rc: 0.18,
                           lmax: 2}
    cutoffs: {filter: 1.11,
              core: 0.96}
    projectors:
      #              energy  rcut
      - 2s(2.00)   -18.420   0.603
      - 2p(3.00)    -7.237   0.529
      -  s           8.791   0.603
      -  p          19.974   0.529
      -  d           0.000   0.577
  
    # LCAO basis set for N:
    #   Name: dzp
    #   File: /home/ubuntu/.pyenv/versions/cemea-env/lib/python3.10/site-packages/gpaw_data/setups/N.dzp.basis.gz
    #   Number of radial functions: 5
    #   Number of spherical harmonics: 13
    #     l=0, rc=4.8594 Bohr: 2s-sz confined orbital
    #     l=1, rc=6.0625 Bohr: 2p-sz confined orbital
    #     l=0, rc=2.6094 Bohr: 2s-dz split-valence wave
    #     l=1, rc=3.2656 Bohr: 2p-dz split-valence wave
    #     l=2, rc=6.0625 Bohr: d-type Gaussian polarization
    #   Number of RI-basis functions 0

  H:
    name: Hydrogen
    id: 4766778ce56282eaa64abeb28b7c1de3
    Z: 1.0
    valence: 1
    core: 0
    charge: 0.0
    file: /home/ubuntu/.pyenv/versions/cemea-env/lib/python3.10/site-packages/gpaw_data/setups/H.LDA.gz
    compensation charges: {type: gauss,
                           rc: 0.15,
                           lmax: 2}
    cutoffs: {filter: 0.85,
              core: 0.53}
    projectors:
      #              energy  rcut
      - 1s(1.00)    -6.353   0.476
      -  s          20.858   0.476
      -  p           0.000   0.476
  
    # LCAO basis set for H:
    #   Name: dzp
    #   File: /home/ubuntu/.pyenv/versions/cemea-env/lib/python3.10/site-packages/gpaw_data/setups/H.dzp.basis.gz
    #   Number of radial functions: 3
    #   Number of spherical harmonics: 5
    #     l=0, rc=6.4219 Bohr: 1s-sz confined orbital
    #     l=0, rc=3.6094 Bohr: 1s-dz split-valence wave
    #     l=1, rc=6.4219 Bohr: p-type Gaussian polarization
    #   Number of RI-basis functions 0

Reference energy: -817334.913866  # eV

Spin-paired calculation

Convergence criteria:
 Maximum [total energy] change in last 3 cyles: 1e-05 eV / valence electron
 Maximum integral of absolute [dens]ity change: 0.0001 electrons / valence electron
 Maximum integral of absolute [eigenst]ate change: 1e-05 eV^2 / valence electron
 Maximum number of scf [iter]ations: 333
 (Square brackets indicate name in SCF output, whereas a 'c' in
 the SCF output indicates the quantity has converged.)

Symmetries present (total): 2

  ( 1  0  0)  ( 0  1  0)
  ( 0  1  0)  ( 1  0  0)
  ( 0  0  1)  ( 0  0  1)

16 k-points: 4 x 4 x 1 Monkhorst-Pack grid
6 k-points in the irreducible part of the Brillouin zone
       k-points in crystal coordinates                weights
   0:     0.12500000   -0.12500000    0.00000000          2/16
   1:     0.12500000    0.12500000    0.00000000          2/16
   2:     0.37500000   -0.37500000    0.00000000          2/16
   3:     0.37500000   -0.12500000    0.00000000          4/16
   4:     0.37500000    0.12500000    0.00000000          4/16
   5:     0.37500000    0.37500000    0.00000000          2/16

Wave functions: LCAO
  Diagonalizer: Serial LAPACK
  Atomic Correction: dense with blas
  Data-type: complex
 

Occupation numbers: Fermi-Dirac:
  width: 0.1000  # eV
 

Eigensolver
   LCAO using direct dense diagonalizer 

Densities:
  Coarse grid: 40*40*92 grid
  Fine grid: 80*80*184 grid
  Total Charge: 0.000000 

Density mixing:
  Method: separate
  Backend: pulay
  Linear mixing parameter: 0.05
  old densities: 5
  Damping of long wavelength oscillations: 50 

Hamiltonian:
  XC and Coulomb potentials evaluated on a 80*80*184 grid
  Using the LDA Exchange-Correlation functional
  Interpolation: tri-quintic (5. degree polynomial)
  Poisson solver: FastPoissonSolver using
    Stencil: 6*3+1=19 point O(h^6) finite-difference Laplacian
    FFT axes: [np.int64(0), np.int64(1), np.int64(2)]
    FST axes: []
 

Memory estimate:
  Process memory now: 1340.54 MiB
  Calculator: 197.03 MiB
    Density: 79.51 MiB
      Arrays: 29.20 MiB
      Localized functions: 39.08 MiB
      Mixer: 11.23 MiB
    Hamiltonian: 21.68 MiB
      Arrays: 19.09 MiB
      XC: 0.00 MiB
      Poisson: 0.00 MiB
      vbar: 2.59 MiB
    Wavefunctions: 95.83 MiB
      C [qnM]: 2.23 MiB
      S, T [2 x qmm]: 15.08 MiB
      P [aqMi]: 0.33 MiB
      BasisFunctions: 78.18 MiB
      Eigensolver: 0.00 MiB

Total number of cores used: 1

Number of atoms: 13
Number of atomic orbitals: 287
Number of bands in calculation: 85
Number of valence electrons: 135
Bands to converge: occupied

... initialized

Initializing position-dependent things.

Density initialized from atomic densities
      .-------------------.  
     /|                   |  
    / |                   |  
   /  |                   |  
  /   |                   |  
 *    |                   |  
 |    |                   |  
 |    |                   |  
 |    |                   |  
 |    |                   |  
 |    |                   |  
 |    |   MH        Mo    |  
 |    |                   |  
 |    |Ni        Mo       |  
 |    |   N         N     |  
 |  Mo|       Mo          |  
 |    |N         N        |  
 Mo   |    Mo             |  
 |    |                   |  
 |    |                   |  
 |    |                   |  
 |    |                   |  
 |    .-------------------.  
 |   /                   /   
 |  /                   /    
 | /                   /     
 |/                   /      
 *-------------------*       

Atomic positions and initial magnetic moments

Positions:
   0 Mo     0.000000    0.000000    8.000000    ( 0.0000,  0.0000,  0.0000)
   1 Ni     2.080000    2.080000   10.080000    ( 0.0000,  0.0000,  0.0000)
   2 N      2.080000    2.080000    8.000000    ( 0.0000,  0.0000,  0.0000)
   3 Mo     0.000000    4.160000    8.000000    ( 0.0000,  0.0000,  0.0000)
   4 Mo     2.080000    6.240000   10.080000    ( 0.0000,  0.0000,  0.0000)
   5 N      2.080000    6.240000    8.000000    ( 0.0000,  0.0000,  0.0000)
   6 Mo     4.160000    0.000000    8.000000    ( 0.0000,  0.0000,  0.0000)
   7 Mo     6.240000    2.080000   10.080000    ( 0.0000,  0.0000,  0.0000)
   8 N      6.240000    2.080000    8.000000    ( 0.0000,  0.0000,  0.0000)
   9 Mo     4.160000    4.160000    8.000000    ( 0.0000,  0.0000,  0.0000)
  10 Mo     6.240000    6.240000   10.080000    ( 0.0000,  0.0000,  0.0000)
  11 N      6.240000    6.240000    8.000000    ( 0.0000,  0.0000,  0.0000)
  12 H      3.466667    3.466667   11.580000    ( 0.0000,  0.0000,  0.0000)

Unit cell:
           periodic     x           y           z      points  spacing
  1. axis:    yes    8.320000    0.000000    0.000000    40     0.2080
  2. axis:    yes    0.000000    8.320000    0.000000    40     0.2080
  3. axis:    yes    0.000000    0.000000   18.080000    92     0.1965

  Lengths:   8.320000   8.320000  18.080000
  Angles:   90.000000  90.000000  90.000000

Effective grid spacing dv^(1/3) = 0.2041

     iter     time        total  log10-change:
                         energy   eigst   dens
iter:   1 08:14:42   -99.853592        c
iter:   2 08:16:10   -87.015336        c -0.87
iter:   3 08:17:34   -81.116918        c -1.01
iter:   4 08:18:59   -81.388889        c -1.04
iter:   5 08:20:31   -78.959670        c -1.11
iter:   6 08:21:51   -80.460625        c -1.17
iter:   7 08:23:19   -81.269192        c -1.22
iter:   8 08:24:46   -83.217823        c -1.31
iter:   9 08:26:13   -82.369973        c -1.38
iter:  10 08:27:31   -78.564600        c -1.48
iter:  11 08:28:58   -77.222067        c -1.58
iter:  12 08:30:11   -75.105755        c -1.70
iter:  13 08:31:36   -76.335799        c -1.73
iter:  14 08:33:09   -76.098947        c -1.44
iter:  15 08:34:34   -74.525934        c -1.74
iter:  16 08:36:02   -74.551967        c -1.90
iter:  17 08:37:28   -74.729558        c -1.87
iter:  18 08:38:55   -75.029120        c -1.83
iter:  19 08:40:17   -75.096806        c -1.83
iter:  20 08:41:28   -74.817316        c -1.87
iter:  21 08:42:52   -74.591126        c -1.91
iter:  22 08:44:14   -74.406471        c -2.08
iter:  23 08:45:37   -74.413756        c -2.25
iter:  24 08:47:02   -74.401753        c -2.22
iter:  25 08:48:26   -74.392704        c -2.44
iter:  26 08:49:40   -74.383573        c -2.46
iter:  27 08:50:59   -74.378197        c -2.51
iter:  28 08:52:28   -74.373315        c -2.73
iter:  29 08:53:38   -74.371663        c -2.72
iter:  30 08:55:04   -74.370894        c -2.80
iter:  31 08:56:28   -74.370768c       c -2.84
iter:  32 08:57:47   -74.370784c       c -2.84
iter:  33 08:59:14   -74.373259        c -3.08
iter:  34 09:00:19   -74.373224        c -3.26
iter:  35 09:01:46   -74.373077c       c -3.37
iter:  36 09:03:00   -74.373174c       c -3.45
iter:  37 09:04:25   -74.373597c       c -3.60
iter:  38 09:05:48   -74.373735c       c -3.66
iter:  39 09:07:09   -74.373485c       c -3.70
iter:  40 09:08:35   -74.373857c       c -3.75
iter:  41 09:09:55   -74.374258c       c -3.75
iter:  42 09:11:23   -74.373625c       c -3.79
iter:  43 09:12:43   -74.373998c       c -3.88
iter:  44 09:14:07   -74.374135c       c -3.91
iter:  45 09:15:23   -74.373860c       c -3.94
iter:  46 09:16:44   -74.374097c       c -4.02c

Converged after 46 iterations.

Dipole moment: (-5.206796, -5.206796, 0.136839) |e|*Ang

Energy contributions relative to reference atoms: (reference = -817334.913866)

Kinetic:       -172.743782
Potential:     +115.160756
External:        +0.000000
XC:             -18.081283
Entropy (-ST):   -1.419592
Local:           +2.000009
SIC:             +0.000000
--------------------------
Free energy:    -75.083893
Extrapolated:   -74.374097

Showing only first 2 kpts
 Kpt  Band  Eigenvalues  Occupancy
  0    65     -2.37707    1.23228
  0    66     -2.36643    1.18135
  0    67     -2.31907    0.94666
  0    68     -2.30955    0.89935

  1    65     -2.36898    1.19365
  1    66     -2.36703    1.18425
  1    67     -2.31376    0.92020
  1    68     -2.31317    0.91729


Fermi level: -2.32975

Gap: 0.011 eV
Transition (v -> c):
  (s=0, k=4, n=66, [0.38, 0.12, 0.00]) -> (s=0, k=2, n=67, [0.38, -0.38, 0.00])
Direct/indirect transitions are different
Direct gap: 0.047 eV
Transition at: (s=0, k=0, n=66, [0.12, -0.12, 0.00])
Timing:                              incl.     excl.
-----------------------------------------------------------
Basic WFS set positions:             0.000     0.000   0.0% |
Basis functions set positions:       0.087     0.087   0.0% |
LCAO WFS Initialize:                 0.480     0.144   0.0% |
 Hamiltonian:                        0.335     0.000   0.0% |
  Atomic:                            0.080     0.001   0.0% |
   XC Correction:                    0.078     0.078   0.0% |
  Calculate atomic Hamiltonians:     0.008     0.008   0.0% |
  Communicate:                       0.000     0.000   0.0% |
  Hartree integrate/restrict:        0.013     0.013   0.0% |
  Initialize Hamiltonian:            0.000     0.000   0.0% |
  Poisson:                           0.160     0.009   0.0% |
   Communicate from 1D:              0.022     0.022   0.0% |
   Communicate from 2D:              0.020     0.020   0.0% |
   Communicate to 1D:                0.023     0.023   0.0% |
   Communicate to 2D:                0.024     0.024   0.0% |
   FFT 1D:                           0.021     0.021   0.0% |
   FFT 2D:                           0.041     0.041   0.0% |
  XC 3D grid:                        0.059     0.059   0.0% |
  vbar:                              0.016     0.016   0.0% |
P tci:                               0.661     0.661   0.0% |
SCF-cycle:                        3778.078     0.072   0.0% |
 Density:                          411.267     0.001   0.0% |
  Atomic density matrices:           0.154     0.154   0.0% |
  Mix:                              16.266    16.266   0.4% |
  Multipole moments:                 0.012     0.012   0.0% |
  Normalize:                         0.004     0.004   0.0% |
  Pseudo density:                  394.830     0.032   0.0% |
   Calculate density matrix:         9.029     9.029   0.2% |
   Construct density:              385.590   385.590  10.2% |---|
   Symmetrize density:               0.180     0.180   0.0% |
 Hamiltonian:                       16.302     0.004   0.0% |
  Atomic:                            3.715     0.052   0.0% |
   XC Correction:                    3.663     3.663   0.1% |
  Calculate atomic Hamiltonians:     0.375     0.375   0.0% |
  Communicate:                       0.000     0.000   0.0% |
  Hartree integrate/restrict:        1.581     1.581   0.0% |
  Poisson:                           6.137     0.323   0.0% |
   Communicate from 1D:              0.926     0.926   0.0% |
   Communicate from 2D:              0.858     0.858   0.0% |
   Communicate to 1D:                0.754     0.754   0.0% |
   Communicate to 2D:                1.047     1.047   0.0% |
   FFT 1D:                           0.848     0.848   0.0% |
   FFT 2D:                           1.381     1.381   0.0% |
  XC 3D grid:                        3.570     3.570   0.1% |
  vbar:                              0.920     0.920   0.0% |
 LCAO eigensolver:                3350.437     0.082   0.0% |
  Calculate projections:            10.573    10.573   0.3% |
  DenseAtomicCorrection:            88.251    88.251   2.3% ||
  Distribute overlap matrix:         0.049     0.049   0.0% |
  Orbital Layouts:                3144.217  3144.217  83.1% |--------------------------------|
  Potential matrix:                 99.847    99.847   2.6% ||
  Sum over cells:                    7.419     7.419   0.2% |
ST tci:                              0.311     0.311   0.0% |
Set symmetry:                        0.001     0.001   0.0% |
TCI: Evaluate splines:               0.823     0.823   0.0% |
mktci:                               0.007     0.007   0.0% |
Other:                               2.619     2.619   0.1% |
-----------------------------------------------------------
Total:                                      3783.068 100.0%

Memory usage: 1.31 GiB
Date: Tue Feb 17 09:16:44 2026
