
  ___ ___ ___ _ _ _  
 |   |   |_  | | | | 
 | | | | | . | | | | 
 |__ |  _|___|_____|  25.7.0
 |___|_|             

User:   mikei@Z790-AORUS-ELITE-AX
Date:   Fri Feb 20 11:20:52 2026
Arch:   x86_64
Pid:    89048
CWD:    /home/mikei/Dokumenty/code/cemea/ocx
Python: 3.10.16
gpaw:   /home/mikei/.pyenv/versions/cemea-env/lib/python3.10/site-packages/gpaw
_gpaw:  /home/mikei/.pyenv/versions/cemea-env/lib/python3.10/site-packages/
        _gpaw.cpython-310-x86_64-linux-gnu.so
ase:    /home/mikei/.pyenv/versions/cemea-env/lib/python3.10/site-packages/ase (version 3.27.0)
numpy:  /home/mikei/.pyenv/versions/cemea-env/lib/python3.10/site-packages/numpy (version 2.2.6)
scipy:  /home/mikei/.pyenv/versions/cemea-env/lib/python3.10/site-packages/scipy (version 1.15.3)
libxc:  2.x.y
units:  Angstrom and eV
cores: 1
OpenMP: False
OMP_NUM_THREADS: 1

Input parameters:
  basis: dzp
  convergence: {density: 0.0001,
                eigenstates: 1e-05,
                energy: 1e-05}
  kpts: [4 4 1]
  mode: lcao

System changes: positions, numbers, cell, pbc, initial_charges, initial_magmoms 

Initialize ...

species:
  Mo:
    name: Molybdenum
    id: ac24daaf086600a00ce6d19a74574df1
    Z: 42.0
    valence: 14
    core: 28
    charge: 0.0
    file: /home/mikei/.pyenv/versions/cemea-env/lib/python3.10/site-packages/gpaw_data/setups/Mo.LDA.gz
    compensation charges: {type: gauss,
                           rc: 0.38,
                           lmax: 2}
    cutoffs: {filter: 2.16,
              core: 1.42}
    projectors:
      #              energy  rcut
      - 4s(2.00)   -64.384   1.238
      - 5s(1.00)    -4.319   1.238
      - 4p(6.00)   -38.595   1.296
      - 5p(0.00)    -1.161   1.296
      - 4d(5.00)    -3.933   1.296
      -  d          23.278   1.296
  
    # LCAO basis set for Mo:
    #   Name: dzp
    #   File: /home/mikei/.pyenv/versions/cemea-env/lib/python3.10/site-packages/gpaw_data/setups/Mo.dzp.basis.gz
    #   Number of radial functions: 11
    #   Number of spherical harmonics: 29
    #     l=0, rc=3.5469 Bohr: 4s-sz confined orbital
    #     l=0, rc=10.0469 Bohr: 5s-sz confined orbital
    #     l=1, rc=4.0781 Bohr: 4p-sz confined orbital
    #     l=1, rc=14.0938 Bohr: 5p-sz confined orbital
    #     l=2, rc=7.2031 Bohr: 4d-sz confined orbital
    #     l=0, rc=2.1250 Bohr: 4s-dz split-valence wave
    #     l=0, rc=6.1250 Bohr: 5s-dz split-valence wave
    #     l=1, rc=2.5469 Bohr: 4p-dz split-valence wave
    #     l=1, rc=8.7656 Bohr: 5p-dz split-valence wave
    #     l=2, rc=4.2344 Bohr: 4d-dz split-valence wave
    #     l=1, rc=10.0469 Bohr: p-type Gaussian polarization
    #   Number of RI-basis functions 0

  C:
    name: Carbon
    id: d60576a1f549371a163e72552ca58787
    Z: 6.0
    valence: 4
    core: 2
    charge: 0.0
    file: /home/mikei/.pyenv/versions/cemea-env/lib/python3.10/site-packages/gpaw_data/setups/C.LDA.gz
    compensation charges: {type: gauss,
                           rc: 0.20,
                           lmax: 2}
    cutoffs: {filter: 1.14,
              core: 1.14}
    projectors:
      #              energy  rcut
      - 2s(2.00)   -13.639   0.635
      - 2p(2.00)    -5.414   0.635
      -  s          13.573   0.635
      -  p          21.797   0.635
      -  d           0.000   0.635
  
    # LCAO basis set for C:
    #   Name: dzp
    #   File: /home/mikei/.pyenv/versions/cemea-env/lib/python3.10/site-packages/gpaw_data/setups/C.dzp.basis.gz
    #   Number of radial functions: 5
    #   Number of spherical harmonics: 13
    #     l=0, rc=5.5469 Bohr: 2s-sz confined orbital
    #     l=1, rc=6.6719 Bohr: 2p-sz confined orbital
    #     l=0, rc=3.0312 Bohr: 2s-dz split-valence wave
    #     l=1, rc=3.7500 Bohr: 2p-dz split-valence wave
    #     l=2, rc=6.6719 Bohr: d-type Gaussian polarization
    #   Number of RI-basis functions 0

Reference energy: -774213.901414  # eV

Spin-paired calculation

Convergence criteria:
 Maximum [total energy] change in last 3 cyles: 1e-05 eV / valence electron
 Maximum integral of absolute [dens]ity change: 0.0001 electrons / valence electron
 Maximum integral of absolute [eigenst]ate change: 1e-05 eV^2 / valence electron
 Maximum number of scf [iter]ations: 333
 (Square brackets indicate name in SCF output, whereas a 'c' in
 the SCF output indicates the quantity has converged.)

Symmetries present (total): 2

  ( 1  0  0)  ( 0  1  0)
  ( 0  1  0)  ( 1  0  0)
  ( 0  0  1)  ( 0  0  1)

16 k-points: 4 x 4 x 1 Monkhorst-Pack grid
6 k-points in the irreducible part of the Brillouin zone
       k-points in crystal coordinates                weights
   0:     0.12500000   -0.12500000    0.00000000          2/16
   1:     0.12500000    0.12500000    0.00000000          2/16
   2:     0.37500000   -0.37500000    0.00000000          2/16
   3:     0.37500000   -0.12500000    0.00000000          4/16
   4:     0.37500000    0.12500000    0.00000000          4/16
   5:     0.37500000    0.37500000    0.00000000          2/16

Wave functions: LCAO
  Diagonalizer: Serial LAPACK
  Atomic Correction: dense with blas
  Data-type: complex
 

Occupation numbers: Fermi-Dirac:
  width: 0.1000  # eV
 

Eigensolver
   LCAO using direct dense diagonalizer 

Densities:
  Coarse grid: 40*40*92 grid
  Fine grid: 80*80*184 grid
  Total Charge: 0.000000 

Density mixing:
  Method: separate
  Backend: pulay
  Linear mixing parameter: 0.05
  old densities: 5
  Damping of long wavelength oscillations: 50 

Hamiltonian:
  XC and Coulomb potentials evaluated on a 80*80*184 grid
  Using the LDA Exchange-Correlation functional
  Interpolation: tri-quintic (5. degree polynomial)
  Poisson solver: FastPoissonSolver using
    Stencil: 6*3+1=19 point O(h^6) finite-difference Laplacian
    FFT axes: [np.int64(0), np.int64(1), np.int64(2)]
    FST axes: []
 

Memory estimate:
  Process memory now: 2222.55 MiB
  Calculator: 186.71 MiB
    Density: 76.50 MiB
      Arrays: 29.20 MiB
      Localized functions: 36.07 MiB
      Mixer: 11.23 MiB
    Hamiltonian: 21.43 MiB
      Arrays: 19.09 MiB
      XC: 0.00 MiB
      Poisson: 0.00 MiB
      vbar: 2.34 MiB
    Wavefunctions: 88.77 MiB
      C [qnM]: 1.70 MiB
      S, T [2 x qmm]: 11.91 MiB
      P [aqMi]: 0.26 MiB
      BasisFunctions: 74.90 MiB
      Eigensolver: 0.00 MiB

Total number of cores used: 1

Number of atoms: 11
Number of atomic orbitals: 255
Number of bands in calculation: 73
Number of valence electrons: 114
Bands to converge: occupied

... initialized

Initializing position-dependent things.

Density initialized from atomic densities
      .-------------------.  
     /|                   |  
    / |                   |  
   /  |                   |  
  /   |                   |  
 *    |                   |  
 |    |                   |  
 |    |                   |  
 |    |                   |  
 |    |                   |  
 |    |                   |  
 |    |   Mo        Mo    |  
 |    |                   |  
 |    |          Mo       |  
 |    |   C         C     |  
 |  Mo|       Mo          |  
 |    |C         C        |  
 Mo   |    Mo             |  
 |    |                   |  
 |    |                   |  
 |    |                   |  
 |    |                   |  
 |    .-------------------.  
 |   /                   /   
 |  /                   /    
 | /                   /     
 |/                   /      
 *-------------------*       

Atomic positions and initial magnetic moments

Positions:
   0 Mo     0.000000    0.000000    8.000000    ( 0.0000,  0.0000,  0.0000)
   1 C      2.060000    2.060000    8.000000    ( 0.0000,  0.0000,  0.0000)
   2 Mo     0.000000    4.120000    8.000000    ( 0.0000,  0.0000,  0.0000)
   3 Mo     2.060000    6.180000   10.060000    ( 0.0000,  0.0000,  0.0000)
   4 C      2.060000    6.180000    8.000000    ( 0.0000,  0.0000,  0.0000)
   5 Mo     4.120000    0.000000    8.000000    ( 0.0000,  0.0000,  0.0000)
   6 Mo     6.180000    2.060000   10.060000    ( 0.0000,  0.0000,  0.0000)
   7 C      6.180000    2.060000    8.000000    ( 0.0000,  0.0000,  0.0000)
   8 Mo     4.120000    4.120000    8.000000    ( 0.0000,  0.0000,  0.0000)
   9 Mo     6.180000    6.180000   10.060000    ( 0.0000,  0.0000,  0.0000)
  10 C      6.180000    6.180000    8.000000    ( 0.0000,  0.0000,  0.0000)

Unit cell:
           periodic     x           y           z      points  spacing
  1. axis:    yes    8.240000    0.000000    0.000000    40     0.2060
  2. axis:    yes    0.000000    8.240000    0.000000    40     0.2060
  3. axis:    yes    0.000000    0.000000   18.060000    92     0.1963

  Lengths:   8.240000   8.240000  18.060000
  Angles:   90.000000  90.000000  90.000000

Effective grid spacing dv^(1/3) = 0.2027

     iter     time        total  log10-change:
                         energy   eigst   dens
iter:   1 11:21:01   -84.410337        c
iter:   2 11:21:09   -77.605696        c -0.84
iter:   3 11:21:16   -72.975534        c -0.95
iter:   4 11:21:22   -71.100650        c -1.06
iter:   5 11:21:30   -69.628096        c -1.16
iter:   6 11:21:37   -68.901259        c -1.25
iter:   7 11:21:46   -68.445192        c -1.40
iter:   8 11:21:55   -68.358112        c -1.61
iter:   9 11:22:02   -68.309441        c -1.87
iter:  10 11:22:14   -68.265212        c -1.95
iter:  11 11:22:20   -68.278758        c -1.97
iter:  12 11:22:28   -68.226727        c -2.04
iter:  13 11:22:35   -68.227028        c -2.22
iter:  14 11:22:43   -68.226866c       c -2.42
iter:  15 11:22:52   -68.223650        c -2.50
iter:  16 11:22:59   -68.223217        c -2.72
iter:  17 11:23:06   -68.222763c       c -2.82
iter:  18 11:23:12   -68.223757c       c -2.85
iter:  19 11:23:21   -68.222785c       c -2.93
iter:  20 11:23:27   -68.222422        c -3.04
iter:  21 11:23:33   -68.221880c       c -3.30
iter:  22 11:23:41   -68.221409c       c -3.37
iter:  23 11:23:47   -68.221153c       c -3.57
iter:  24 11:23:56   -68.220980c       c -3.69
iter:  25 11:24:02   -68.221063c       c -3.87
iter:  26 11:24:09   -68.221097c       c -3.85
iter:  27 11:24:17   -68.221057c       c -3.97
iter:  28 11:24:23   -68.221136c       c -4.04c

Converged after 28 iterations.

Dipole moment: (-5.139743, -5.139743, 0.570709) |e|*Ang

Energy contributions relative to reference atoms: (reference = -774213.901414)

Kinetic:       -187.751067
Potential:     +128.480770
External:        +0.000000
XC:              -9.363807
Entropy (-ST):   -1.086130
Local:           +0.956033
SIC:             +0.000000
--------------------------
Free energy:    -68.764201
Extrapolated:   -68.221136

Showing only first 2 kpts
 Kpt  Band  Eigenvalues  Occupancy
  0    55     -2.45343    1.35432
  0    56     -2.35692    0.88831
  0    57     -2.33961    0.80387
  0    58     -2.28557    0.56270

  1    55     -2.45343    1.35432
  1    56     -2.35692    0.88831
  1    57     -2.33961    0.80387
  1    58     -2.28557    0.56270


Fermi level: -2.37935

No gap
No difference between direct/indirect transitions
Timing:                              incl.     excl.
-----------------------------------------------------------
Basic WFS set positions:             0.000     0.000   0.0% |
Basis functions set positions:       0.058     0.058   0.0% |
LCAO WFS Initialize:                 0.202     0.028   0.0% |
 Hamiltonian:                        0.174     0.000   0.0% |
  Atomic:                            0.048     0.001   0.0% |
   XC Correction:                    0.048     0.048   0.0% |
  Calculate atomic Hamiltonians:     0.005     0.005   0.0% |
  Communicate:                       0.000     0.000   0.0% |
  Hartree integrate/restrict:        0.005     0.005   0.0% |
  Initialize Hamiltonian:            0.001     0.001   0.0% |
  Poisson:                           0.075     0.005   0.0% |
   Communicate from 1D:              0.006     0.006   0.0% |
   Communicate from 2D:              0.007     0.007   0.0% |
   Communicate to 1D:                0.007     0.007   0.0% |
   Communicate to 2D:                0.008     0.008   0.0% |
   FFT 1D:                           0.014     0.014   0.0% |
   FFT 2D:                           0.028     0.028   0.0% |
  XC 3D grid:                        0.040     0.040   0.0% |
  vbar:                              0.001     0.001   0.0% |
P tci:                               0.141     0.141   0.1% |
SCF-cycle:                         209.570     0.026   0.0% |
 Density:                          103.689     0.000   0.0% |
  Atomic density matrices:           0.026     0.026   0.0% |
  Mix:                               2.447     2.447   1.2% |
  Multipole moments:                 0.002     0.002   0.0% |
  Normalize:                         0.001     0.001   0.0% |
  Pseudo density:                  101.211     0.008   0.0% |
   Calculate density matrix:         0.409     0.409   0.2% |
   Construct density:              100.702   100.702  47.8% |------------------|
   Symmetrize density:               0.092     0.092   0.0% |
 Hamiltonian:                        5.619     0.001   0.0% |
  Atomic:                            1.457     0.018   0.0% |
   XC Correction:                    1.439     1.439   0.7% |
  Calculate atomic Hamiltonians:     0.132     0.132   0.1% |
  Communicate:                       0.000     0.000   0.0% |
  Hartree integrate/restrict:        0.141     0.141   0.1% |
  Poisson:                           1.696     0.123   0.1% |
   Communicate from 1D:              0.168     0.168   0.1% |
   Communicate from 2D:              0.179     0.179   0.1% |
   Communicate to 1D:                0.161     0.161   0.1% |
   Communicate to 2D:                0.173     0.173   0.1% |
   FFT 1D:                           0.297     0.297   0.1% |
   FFT 2D:                           0.595     0.595   0.3% |
  XC 3D grid:                        1.962     1.962   0.9% |
  vbar:                              0.230     0.230   0.1% |
 LCAO eigensolver:                 100.235     0.023   0.0% |
  Calculate projections:             9.060     9.060   4.3% |-|
  DenseAtomicCorrection:             6.788     6.788   3.2% ||
  Distribute overlap matrix:         0.019     0.019   0.0% |
  Orbital Layouts:                  65.821    65.821  31.2% |-----------|
  Potential matrix:                 17.396    17.396   8.3% |--|
  Sum over cells:                    1.130     1.130   0.5% |
ST tci:                              0.105     0.105   0.0% |
Set symmetry:                        0.001     0.001   0.0% |
TCI: Evaluate splines:               0.124     0.124   0.1% |
mktci:                               0.004     0.004   0.0% |
Other:                               0.499     0.499   0.2% |
-----------------------------------------------------------
Total:                                       210.703 100.0%

Memory usage: 2.17 GiB
Date: Fri Feb 20 11:24:23 2026
