
  ___ ___ ___ _ _ _  
 |   |   |_  | | | | 
 | | | | | . | | | | 
 |__ |  _|___|_____|  25.7.0
 |___|_|             

User:   mikei@Z790-AORUS-ELITE-AX
Date:   Fri Feb 27 04:22:01 2026
Arch:   x86_64
Pid:    89048
CWD:    /home/mikei/Dokumenty/code/cemea/ocx
Python: 3.10.16
gpaw:   /home/mikei/.pyenv/versions/cemea-env/lib/python3.10/site-packages/gpaw
_gpaw:  /home/mikei/.pyenv/versions/cemea-env/lib/python3.10/site-packages/
        _gpaw.cpython-310-x86_64-linux-gnu.so
ase:    /home/mikei/.pyenv/versions/cemea-env/lib/python3.10/site-packages/ase (version 3.27.0)
numpy:  /home/mikei/.pyenv/versions/cemea-env/lib/python3.10/site-packages/numpy (version 2.2.6)
scipy:  /home/mikei/.pyenv/versions/cemea-env/lib/python3.10/site-packages/scipy (version 1.15.3)
libxc:  2.x.y
units:  Angstrom and eV
cores: 1
OpenMP: False
OMP_NUM_THREADS: 1

Input parameters:
  basis: dzp
  convergence: {density: 0.0001,
                eigenstates: 1e-05,
                energy: 1e-05}
  kpts: [4 4 1]
  mode: lcao

System changes: positions, numbers, cell, pbc, initial_charges, initial_magmoms 

Initialize ...

species:
  Ni:
    name: Nickel
    id: 1802175e8de9ea26d9f4394ec1a7d564
    Z: 28.0
    valence: 16
    core: 12
    charge: 0.0
    file: /home/mikei/.pyenv/versions/cemea-env/lib/python3.10/site-packages/gpaw_data/setups/Ni.LDA.gz
    compensation charges: {type: gauss,
                           rc: 0.36,
                           lmax: 2}
    cutoffs: {filter: 2.14,
              core: 1.98}
    projectors:
      #              energy  rcut
      - 4s(2.00)    -5.858   1.164
      - 3p(6.00)   -71.266   1.207
      - 4p(0.00)    -1.338   1.207
      - 3d(8.00)    -9.141   1.138
      -  s          21.353   1.164
      -  d          18.071   1.138
  
    # LCAO basis set for Ni:
    #   Name: dzp
    #   File: /home/mikei/.pyenv/versions/cemea-env/lib/python3.10/site-packages/gpaw_data/setups/Ni.dzp.basis.gz
    #   Number of radial functions: 9
    #   Number of spherical harmonics: 27
    #     l=0, rc=8.5156 Bohr: 4s-sz confined orbital
    #     l=1, rc=2.9375 Bohr: 3p-sz confined orbital
    #     l=1, rc=12.4062 Bohr: 4p-sz confined orbital
    #     l=2, rc=4.6875 Bohr: 3d-sz confined orbital
    #     l=0, rc=4.9688 Bohr: 4s-dz split-valence wave
    #     l=1, rc=2.0781 Bohr: 3p-dz split-valence wave
    #     l=1, rc=7.5469 Bohr: 4p-dz split-valence wave
    #     l=2, rc=2.9375 Bohr: 3d-dz split-valence wave
    #     l=1, rc=8.5156 Bohr: p-type Gaussian polarization
    #   Number of RI-basis functions 0

  Mo:
    name: Molybdenum
    id: ac24daaf086600a00ce6d19a74574df1
    Z: 42.0
    valence: 14
    core: 28
    charge: 0.0
    file: /home/mikei/.pyenv/versions/cemea-env/lib/python3.10/site-packages/gpaw_data/setups/Mo.LDA.gz
    compensation charges: {type: gauss,
                           rc: 0.38,
                           lmax: 2}
    cutoffs: {filter: 2.16,
              core: 1.42}
    projectors:
      #              energy  rcut
      - 4s(2.00)   -64.384   1.238
      - 5s(1.00)    -4.319   1.238
      - 4p(6.00)   -38.595   1.296
      - 5p(0.00)    -1.161   1.296
      - 4d(5.00)    -3.933   1.296
      -  d          23.278   1.296
  
    # LCAO basis set for Mo:
    #   Name: dzp
    #   File: /home/mikei/.pyenv/versions/cemea-env/lib/python3.10/site-packages/gpaw_data/setups/Mo.dzp.basis.gz
    #   Number of radial functions: 11
    #   Number of spherical harmonics: 29
    #     l=0, rc=3.5469 Bohr: 4s-sz confined orbital
    #     l=0, rc=10.0469 Bohr: 5s-sz confined orbital
    #     l=1, rc=4.0781 Bohr: 4p-sz confined orbital
    #     l=1, rc=14.0938 Bohr: 5p-sz confined orbital
    #     l=2, rc=7.2031 Bohr: 4d-sz confined orbital
    #     l=0, rc=2.1250 Bohr: 4s-dz split-valence wave
    #     l=0, rc=6.1250 Bohr: 5s-dz split-valence wave
    #     l=1, rc=2.5469 Bohr: 4p-dz split-valence wave
    #     l=1, rc=8.7656 Bohr: 5p-dz split-valence wave
    #     l=2, rc=4.2344 Bohr: 4d-dz split-valence wave
    #     l=1, rc=10.0469 Bohr: p-type Gaussian polarization
    #   Number of RI-basis functions 0

  C:
    name: Carbon
    id: d60576a1f549371a163e72552ca58787
    Z: 6.0
    valence: 4
    core: 2
    charge: 0.0
    file: /home/mikei/.pyenv/versions/cemea-env/lib/python3.10/site-packages/gpaw_data/setups/C.LDA.gz
    compensation charges: {type: gauss,
                           rc: 0.20,
                           lmax: 2}
    cutoffs: {filter: 1.14,
              core: 1.14}
    projectors:
      #              energy  rcut
      - 2s(2.00)   -13.639   0.635
      - 2p(2.00)    -5.414   0.635
      -  s          13.573   0.635
      -  p          21.797   0.635
      -  d           0.000   0.635
  
    # LCAO basis set for C:
    #   Name: dzp
    #   File: /home/mikei/.pyenv/versions/cemea-env/lib/python3.10/site-packages/gpaw_data/setups/C.dzp.basis.gz
    #   Number of radial functions: 5
    #   Number of spherical harmonics: 13
    #     l=0, rc=5.5469 Bohr: 2s-sz confined orbital
    #     l=1, rc=6.6719 Bohr: 2p-sz confined orbital
    #     l=0, rc=3.0312 Bohr: 2s-dz split-valence wave
    #     l=1, rc=3.7500 Bohr: 2p-dz split-valence wave
    #     l=2, rc=6.6719 Bohr: d-type Gaussian polarization
    #   Number of RI-basis functions 0

  Pd:
    name: Palladium
    id: e532e18c0482708fc2e61045fa7bdb18
    Z: 46.0
    valence: 16
    core: 30
    charge: 0.0
    file: /home/mikei/.pyenv/versions/cemea-env/lib/python3.10/site-packages/gpaw_data/setups/Pd.LDA.gz
    compensation charges: {type: gauss,
                           rc: 0.38,
                           lmax: 2}
    cutoffs: {filter: 2.38,
              core: 2.28}
    projectors:
      #              energy  rcut
      - 5s(0.00)    -3.604   1.228
      - 4p(6.00)   -51.371   1.360
      - 5p(0.00)    -0.356   1.360
      - 4d(10.00)    -4.308   1.228
      -  s          23.607   1.228
      -  d          22.904   1.228
  
    # LCAO basis set for Pd:
    #   Name: dzp
    #   File: /home/mikei/.pyenv/versions/cemea-env/lib/python3.10/site-packages/gpaw_data/setups/Pd.dzp.basis.gz
    #   Number of radial functions: 9
    #   Number of spherical harmonics: 27
    #     l=0, rc=10.0312 Bohr: 5s-sz confined orbital
    #     l=1, rc=3.5312 Bohr: 4p-sz confined orbital
    #     l=1, rc=16.0000 Bohr: 5p-sz confined orbital
    #     l=2, rc=6.2031 Bohr: 4d-sz confined orbital
    #     l=0, rc=6.0156 Bohr: 5s-dz split-valence wave
    #     l=1, rc=2.4062 Bohr: 4p-dz split-valence wave
    #     l=1, rc=9.9375 Bohr: 5p-dz split-valence wave
    #     l=2, rc=3.6719 Bohr: 4d-dz split-valence wave
    #     l=1, rc=10.0312 Bohr: p-type Gaussian polarization
    #   Number of RI-basis functions 0

  H:
    name: Hydrogen
    id: 4766778ce56282eaa64abeb28b7c1de3
    Z: 1.0
    valence: 1
    core: 0
    charge: 0.0
    file: /home/mikei/.pyenv/versions/cemea-env/lib/python3.10/site-packages/gpaw_data/setups/H.LDA.gz
    compensation charges: {type: gauss,
                           rc: 0.15,
                           lmax: 2}
    cutoffs: {filter: 0.85,
              core: 0.53}
    projectors:
      #              energy  rcut
      - 1s(1.00)    -6.353   0.476
      -  s          20.858   0.476
      -  p           0.000   0.476
  
    # LCAO basis set for H:
    #   Name: dzp
    #   File: /home/mikei/.pyenv/versions/cemea-env/lib/python3.10/site-packages/gpaw_data/setups/H.dzp.basis.gz
    #   Number of radial functions: 3
    #   Number of spherical harmonics: 5
    #     l=0, rc=6.4219 Bohr: 1s-sz confined orbital
    #     l=0, rc=3.6094 Bohr: 1s-dz split-valence wave
    #     l=1, rc=6.4219 Bohr: p-type Gaussian polarization
    #   Number of RI-basis functions 0

Reference energy: -2919459.607116  # eV

Spin-paired calculation

Convergence criteria:
 Maximum [total energy] change in last 3 cyles: 1e-05 eV / valence electron
 Maximum integral of absolute [dens]ity change: 0.0001 electrons / valence electron
 Maximum integral of absolute [eigenst]ate change: 1e-05 eV^2 / valence electron
 Maximum number of scf [iter]ations: 333
 (Square brackets indicate name in SCF output, whereas a 'c' in
 the SCF output indicates the quantity has converged.)

Symmetries present (total): 1

  ( 1  0  0)
  ( 0  1  0)
  ( 0  0  1)

16 k-points: 4 x 4 x 1 Monkhorst-Pack grid
8 k-points in the irreducible part of the Brillouin zone
       k-points in crystal coordinates                weights
   0:     0.12500000   -0.37500000    0.00000000          2/16
   1:     0.12500000   -0.12500000    0.00000000          2/16
   2:     0.12500000    0.12500000    0.00000000          2/16
   3:     0.12500000    0.37500000    0.00000000          2/16
   4:     0.37500000   -0.37500000    0.00000000          2/16
   5:     0.37500000   -0.12500000    0.00000000          2/16
   6:     0.37500000    0.12500000    0.00000000          2/16
   7:     0.37500000    0.37500000    0.00000000          2/16

Wave functions: LCAO
  Diagonalizer: Serial LAPACK
  Atomic Correction: dense with blas
  Data-type: complex
 

Occupation numbers: Fermi-Dirac:
  width: 0.1000  # eV
 

Eigensolver
   LCAO using direct dense diagonalizer 

Densities:
  Coarse grid: 32*32*132 grid
  Fine grid: 64*64*264 grid
  Total Charge: 0.000000 

Density mixing:
  Method: separate
  Backend: pulay
  Linear mixing parameter: 0.05
  old densities: 5
  Damping of long wavelength oscillations: 50 

Hamiltonian:
  XC and Coulomb potentials evaluated on a 64*64*264 grid
  Using the LDA Exchange-Correlation functional
  Interpolation: tri-quintic (5. degree polynomial)
  Poisson solver: FastPoissonSolver using
    Stencil: 8*3+1=25 point O(h^6) finite-difference Laplacian
    FFT axes: [np.int64(0), np.int64(1), np.int64(2)]
    FST axes: []
 

Memory estimate:
  Process memory now: 4796.85 MiB
  Calculator: 1099.37 MiB
    Density: 217.91 MiB
      Arrays: 26.81 MiB
      Localized functions: 180.79 MiB
      Mixer: 10.31 MiB
    Hamiltonian: 30.94 MiB
      Arrays: 17.53 MiB
      XC: 0.00 MiB
      Poisson: 0.00 MiB
      vbar: 13.41 MiB
    Wavefunctions: 850.52 MiB
      C [qnM]: 77.88 MiB
      S, T [2 x qmm]: 457.56 MiB
      P [aqMi]: 9.62 MiB
      BasisFunctions: 305.46 MiB
      Eigensolver: 0.00 MiB

Total number of cores used: 1

Number of atoms: 53
Number of atomic orbitals: 1369
Number of bands in calculation: 466
Number of valence electrons: 769
Bands to converge: occupied

... initialized

Initializing position-dependent things.

Density initialized from atomic densities
                                         
                                         
                                         
                                         
                                         
                                         
                  H                      
                Pd    Pd                 
               Pdo  Pd    Mo             
                                         
             Mo C      Mo C              
                                         
         Mo         Mo                   
             C         C                 
       Mo       NMo   Ni    Ni           
           Ni    Ni     Ni               
                 Ni    Ni    Ni          
       Ni   NNi   NNi   Ni               
        Ni    Ni    Ni                   
                   Ni    Ni    Ni        
               Ni    Ni    Ni            
           Ni    Ni    Ni                
                Ni    Ni    Ni           
           Ni    Ni     Ni               
       Ni    Ni    Ni                    
                                         
                                         
                                         
                                         

Atomic positions and initial magnetic moments

Positions:
   0 Ni     0.000000    0.000000    8.000000    ( 0.0000,  0.0000,  0.0000)
   1 Ni     2.489016    0.000000    8.000000    ( 0.0000,  0.0000,  0.0000)
   2 Ni     4.978032    0.000000    8.000000    ( 0.0000,  0.0000,  0.0000)
   3 Ni     1.244508    2.155551    8.000000    ( 0.0000,  0.0000,  0.0000)
   4 Ni     3.733524    2.155551    8.000000    ( 0.0000,  0.0000,  0.0000)
   5 Ni     6.222540    2.155551    8.000000    ( 0.0000,  0.0000,  0.0000)
   6 Ni     2.489016    4.311102    8.000000    ( 0.0000,  0.0000,  0.0000)
   7 Ni     4.978032    4.311102    8.000000    ( 0.0000,  0.0000,  0.0000)
   8 Ni     7.467048    4.311102    8.000000    ( 0.0000,  0.0000,  0.0000)
   9 Ni     1.244508    0.718517   10.032273    ( 0.0000,  0.0000,  0.0000)
  10 Ni     3.733524    0.718517   10.032273    ( 0.0000,  0.0000,  0.0000)
  11 Ni     6.222540    0.718517   10.032273    ( 0.0000,  0.0000,  0.0000)
  12 Ni     2.489016    2.874068   10.032273    ( 0.0000,  0.0000,  0.0000)
  13 Ni     4.978032    2.874068   10.032273    ( 0.0000,  0.0000,  0.0000)
  14 Ni     7.467048    2.874068   10.032273    ( 0.0000,  0.0000,  0.0000)
  15 Ni     3.733524    5.029619   10.032273    ( 0.0000,  0.0000,  0.0000)
  16 Ni     6.222540    5.029619   10.032273    ( 0.0000,  0.0000,  0.0000)
  17 Ni     8.711556    5.029619   10.032273    ( 0.0000,  0.0000,  0.0000)
  18 Ni     0.000000    1.437034   12.064546    ( 0.0000,  0.0000,  0.0000)
  19 Ni     2.489016    1.437034   12.064546    ( 0.0000,  0.0000,  0.0000)
  20 Ni     4.978032    1.437034   12.064546    ( 0.0000,  0.0000,  0.0000)
  21 Ni     1.244508    3.592585   12.064546    ( 0.0000,  0.0000,  0.0000)
  22 Ni     3.733524    3.592585   12.064546    ( 0.0000,  0.0000,  0.0000)
  23 Ni     6.222540    3.592585   12.064546    ( 0.0000,  0.0000,  0.0000)
  24 Ni     2.489016    5.748136   12.064546    ( 0.0000,  0.0000,  0.0000)
  25 Ni     4.978032    5.748136   12.064546    ( 0.0000,  0.0000,  0.0000)
  26 Ni     7.467048    5.748136   12.064546    ( 0.0000,  0.0000,  0.0000)
  27 Ni     0.000000    0.000000   14.096819    ( 0.0000,  0.0000,  0.0000)
  28 Ni     2.489016    0.000000   14.096819    ( 0.0000,  0.0000,  0.0000)
  29 Ni     4.978032    0.000000   14.096819    ( 0.0000,  0.0000,  0.0000)
  30 Ni     1.244508    2.155551   14.096819    ( 0.0000,  0.0000,  0.0000)
  31 Ni     3.733524    2.155551   14.096819    ( 0.0000,  0.0000,  0.0000)
  32 Ni     6.222540    2.155551   14.096819    ( 0.0000,  0.0000,  0.0000)
  33 Ni     2.489016    4.311102   14.096819    ( 0.0000,  0.0000,  0.0000)
  34 Ni     4.978032    4.311102   14.096819    ( 0.0000,  0.0000,  0.0000)
  35 Ni     7.467048    4.311102   14.096819    ( 0.0000,  0.0000,  0.0000)
  36 Mo     0.000000    0.000000   16.296819    ( 0.0000,  0.0000,  0.0000)
  37 Mo     2.060000    2.060000   18.356819    ( 0.0000,  0.0000,  0.0000)
  38 C      2.060000    2.060000   16.296819    ( 0.0000,  0.0000,  0.0000)
  39 Mo     0.000000    4.120000   16.296819    ( 0.0000,  0.0000,  0.0000)
  40 Mo     2.060000    6.180000   18.356819    ( 0.0000,  0.0000,  0.0000)
  41 C      2.060000    6.180000   16.296819    ( 0.0000,  0.0000,  0.0000)
  42 Mo     4.120000    0.000000   16.296819    ( 0.0000,  0.0000,  0.0000)
  43 Mo     6.180000    2.060000   18.356819    ( 0.0000,  0.0000,  0.0000)
  44 C      6.180000    2.060000   16.296819    ( 0.0000,  0.0000,  0.0000)
  45 Mo     4.120000    4.120000   16.296819    ( 0.0000,  0.0000,  0.0000)
  46 Mo     6.180000    6.180000   18.356819    ( 0.0000,  0.0000,  0.0000)
  47 C      6.180000    6.180000   16.296819    ( 0.0000,  0.0000,  0.0000)
  48 Pd     2.691821    1.679162   20.156819    ( 0.0000,  0.0000,  0.0000)
  49 Pd     2.691821    4.079162   20.156819    ( 0.0000,  0.0000,  0.0000)
  50 Pd     5.091821    1.679162   20.156819    ( 0.0000,  0.0000,  0.0000)
  51 Pd     5.091821    4.079162   20.156819    ( 0.0000,  0.0000,  0.0000)
  52 H      3.891821    2.879162   21.656819    ( 0.0000,  0.0000,  0.0000)

Unit cell:
           periodic     x           y           z      points  spacing
  1. axis:    yes    7.467048    0.000000    0.000000    32     0.2021
  2. axis:    yes    3.733524    6.466653    0.000000    32     0.2021
  3. axis:    yes    0.000000    0.000000   26.356819   132     0.1997

  Lengths:   7.467048   7.467048  26.356819
  Angles:   90.000000  90.000000  60.000000

Effective grid spacing dv^(1/3) = 0.2112

     iter     time        total  log10-change:
                         energy   eigst   dens
iter:   1 04:23:09 -1201.704790        c
iter:   2 04:25:48 -8602.761457        c -0.89
iter:   3 04:28:08  -456.146386        c -0.35
iter:   4 04:30:43  -463.388648        c -1.35
iter:   5 04:33:07  -532.636574        c -1.40
iter:   6 04:35:46  -440.178403        c -1.19
iter:   7 04:38:57  -439.168859        c -1.54
iter:   8 04:41:51  -425.608815        c -1.43
iter:   9 04:44:40  -403.755221        c -1.53
iter:  10 04:47:02  -409.754186        c -1.63
iter:  11 04:49:37  -417.907374        c -1.61
iter:  12 04:52:27  -429.867717        c -1.71
iter:  13 04:54:42  -412.879099        c -1.54
iter:  14 04:57:14  -422.403653        c -1.75
iter:  15 05:00:16  -407.052776        c -1.69
iter:  16 05:03:18  -444.372883        c -1.84
iter:  17 05:06:07  -409.912343        c -1.61
iter:  18 05:09:09  -412.608985        c -1.82
iter:  19 05:12:16  -432.637571        c -1.86
iter:  20 05:15:00  -406.513289        c -1.60
iter:  21 05:17:31  -413.665491        c -1.93
iter:  22 05:20:10  -438.734792        c -1.77
iter:  23 05:22:36  -404.072323        c -1.59
iter:  24 05:25:33  -398.448516        c -1.95
iter:  25 05:28:10  -397.128596        c -2.21
iter:  26 05:30:20  -406.315776        c -2.28
iter:  27 05:33:00  -396.962811        c -2.01
iter:  28 05:35:31  -397.124545        c -2.42
iter:  29 05:38:16  -397.010713        c -2.39
iter:  30 05:41:16  -396.365652        c -2.39
iter:  31 05:44:03  -396.870994        c -2.62
iter:  32 05:46:41  -396.252349        c -2.44
iter:  33 05:49:37  -396.391777        c -2.73
iter:  34 05:52:02  -396.251929        c -2.65
iter:  35 05:54:54  -396.293626        c -2.66
iter:  36 05:57:32  -396.167569        c -2.67
iter:  37 06:00:28  -396.128132        c -2.87
iter:  38 06:03:41  -396.230174        c -2.95
iter:  39 06:06:35  -396.225765        c -2.67
iter:  40 06:09:13  -396.485268        c -2.70
iter:  41 06:11:48  -396.715427        c -2.60
iter:  42 06:14:32  -396.122658        c -2.54
iter:  43 06:17:25  -396.112160        c -2.97
iter:  44 06:20:03  -396.115789        c -3.04
iter:  45 06:23:06  -396.108189c       c -3.26
iter:  46 06:25:57  -396.104002        c -3.28
iter:  47 06:28:34  -396.288204        c -3.10
iter:  48 06:31:25  -396.101056        c -2.71
iter:  49 06:34:05  -396.098816        c -3.30
iter:  50 06:37:17  -396.092101        c -3.40
iter:  51 06:40:30  -396.092539c       c -3.54
iter:  52 06:43:51  -396.098490c       c -3.39
iter:  53 06:46:55  -396.187660        c -3.38
iter:  54 06:50:14  -396.091339        c -2.95
iter:  55 06:53:30  -396.091243        c -3.50
iter:  56 06:56:40  -396.093434c       c -3.48
iter:  57 07:00:18  -396.102914        c -3.41
iter:  58 07:03:37  -396.094264        c -3.44
iter:  59 07:06:39  -396.090646        c -3.75
iter:  60 07:09:48  -396.095663c       c -3.84
iter:  61 07:12:39  -396.091536c       c -3.85
iter:  62 07:15:49  -396.093262c       c -4.13c

Converged after 62 iterations.

Dipole moment: (-12.490032, 21.832515, 0.210810) |e|*Ang

Energy contributions relative to reference atoms: (reference = -2919459.607116)

Kinetic:       +209.777621
Potential:     -170.493342
External:        +0.000000
XC:            -432.416895
Entropy (-ST):   -3.507875
Local:           -1.206708
SIC:             +0.000000
--------------------------
Free energy:   -397.847200
Extrapolated:  -396.093262

Showing only first 2 kpts
 Kpt  Band  Eigenvalues  Occupancy
  0   382      1.64464    1.10230
  0   383      1.66245    1.01362
  0   384      1.68569    0.89781
  0   385      1.69270    0.86324

  1   382      1.58167    1.39484
  1   383      1.59044    1.35721
  1   384      1.59737    1.32662
  1   385      1.60325    1.30011


Fermi level: 1.66518

No gap
No difference between direct/indirect transitions
Timing:                              incl.     excl.
-----------------------------------------------------------
Basic WFS set positions:             0.001     0.001   0.0% |
Basis functions set positions:       0.198     0.198   0.0% |
LCAO WFS Initialize:                 0.408     0.098   0.0% |
 Hamiltonian:                        0.310     0.000   0.0% |
  Atomic:                            0.168     0.002   0.0% |
   XC Correction:                    0.166     0.166   0.0% |
  Calculate atomic Hamiltonians:     0.027     0.027   0.0% |
  Communicate:                       0.000     0.000   0.0% |
  Hartree integrate/restrict:        0.011     0.011   0.0% |
  Initialize Hamiltonian:            0.001     0.001   0.0% |
  Poisson:                           0.063     0.005   0.0% |
   Communicate from 1D:              0.006     0.006   0.0% |
   Communicate from 2D:              0.007     0.007   0.0% |
   Communicate to 1D:                0.007     0.007   0.0% |
   Communicate to 2D:                0.009     0.009   0.0% |
   FFT 1D:                           0.009     0.009   0.0% |
   FFT 2D:                           0.020     0.020   0.0% |
  XC 3D grid:                        0.037     0.037   0.0% |
  vbar:                              0.003     0.003   0.0% |
P tci:                               6.152     6.152   0.1% |
SCF-cycle:                       10410.751     0.227   0.0% |
 Density:                         5282.606     0.001   0.0% |
  Atomic density matrices:           1.363     1.363   0.0% |
  Mix:                               8.184     8.184   0.1% |
  Multipole moments:                 0.018     0.018   0.0% |
  Normalize:                         0.006     0.006   0.0% |
  Pseudo density:                 5273.034     0.248   0.0% |
   Calculate density matrix:        16.082    16.082   0.2% |
   Construct density:             5256.703  5256.703  50.4% |-------------------|
   Symmetrize density:               0.001     0.001   0.0% |
 Hamiltonian:                       20.796     0.003   0.0% |
  Atomic:                           10.431     0.119   0.0% |
   XC Correction:                   10.312    10.312   0.1% |
  Calculate atomic Hamiltonians:     1.656     1.656   0.0% |
  Communicate:                       0.000     0.000   0.0% |
  Hartree integrate/restrict:        0.689     0.689   0.0% |
  Poisson:                           3.652     0.332   0.0% |
   Communicate from 1D:              0.443     0.443   0.0% |
   Communicate from 2D:              0.393     0.393   0.0% |
   Communicate to 1D:                0.413     0.413   0.0% |
   Communicate to 2D:                0.514     0.514   0.0% |
   FFT 1D:                           0.464     0.464   0.0% |
   FFT 2D:                           1.093     1.093   0.0% |
  XC 3D grid:                        3.719     3.719   0.0% |
  vbar:                              0.646     0.646   0.0% |
 LCAO eigensolver:                5107.122     2.353   0.0% |
  Calculate projections:           111.534   111.534   1.1% |
  DenseAtomicCorrection:           349.781   349.781   3.4% ||
  Distribute overlap matrix:         5.171     5.171   0.0% |
  Orbital Layouts:                3560.235  3560.235  34.1% |-------------|
  Potential matrix:                861.557   861.557   8.3% |--|
  Sum over cells:                  216.491   216.491   2.1% ||
ST tci:                              2.641     2.641   0.0% |
Set symmetry:                        0.000     0.000   0.0% |
TCI: Evaluate splines:               0.682     0.682   0.0% |
mktci:                               0.057     0.057   0.0% |
Other:                               6.834     6.834   0.1% |
-----------------------------------------------------------
Total:                                     10427.724 100.0%

Memory usage: 4.71 GiB
Date: Fri Feb 27 07:15:49 2026
