
  ___ ___ ___ _ _ _  
 |   |   |_  | | | | 
 | | | | | . | | | | 
 |__ |  _|___|_____|  25.7.0
 |___|_|             

User:   mikei@Z790-AORUS-ELITE-AX
Date:   Tue Mar  3 09:08:38 2026
Arch:   x86_64
Pid:    89048
CWD:    /home/mikei/Dokumenty/code/cemea/ocx
Python: 3.10.16
gpaw:   /home/mikei/.pyenv/versions/cemea-env/lib/python3.10/site-packages/gpaw
_gpaw:  /home/mikei/.pyenv/versions/cemea-env/lib/python3.10/site-packages/
        _gpaw.cpython-310-x86_64-linux-gnu.so
ase:    /home/mikei/.pyenv/versions/cemea-env/lib/python3.10/site-packages/ase (version 3.27.0)
numpy:  /home/mikei/.pyenv/versions/cemea-env/lib/python3.10/site-packages/numpy (version 2.2.6)
scipy:  /home/mikei/.pyenv/versions/cemea-env/lib/python3.10/site-packages/scipy (version 1.15.3)
libxc:  2.x.y
units:  Angstrom and eV
cores: 1
OpenMP: False
OMP_NUM_THREADS: 1

Input parameters:
  basis: dzp
  convergence: {density: 0.0001,
                eigenstates: 1e-05,
                energy: 1e-05}
  kpts: [4 4 1]
  mode: lcao

System changes: positions, numbers, cell, pbc, initial_charges, initial_magmoms 

Initialize ...

species:
  Ni:
    name: Nickel
    id: 1802175e8de9ea26d9f4394ec1a7d564
    Z: 28.0
    valence: 16
    core: 12
    charge: 0.0
    file: /home/mikei/.pyenv/versions/cemea-env/lib/python3.10/site-packages/gpaw_data/setups/Ni.LDA.gz
    compensation charges: {type: gauss,
                           rc: 0.36,
                           lmax: 2}
    cutoffs: {filter: 2.14,
              core: 1.98}
    projectors:
      #              energy  rcut
      - 4s(2.00)    -5.858   1.164
      - 3p(6.00)   -71.266   1.207
      - 4p(0.00)    -1.338   1.207
      - 3d(8.00)    -9.141   1.138
      -  s          21.353   1.164
      -  d          18.071   1.138
  
    # LCAO basis set for Ni:
    #   Name: dzp
    #   File: /home/mikei/.pyenv/versions/cemea-env/lib/python3.10/site-packages/gpaw_data/setups/Ni.dzp.basis.gz
    #   Number of radial functions: 9
    #   Number of spherical harmonics: 27
    #     l=0, rc=8.5156 Bohr: 4s-sz confined orbital
    #     l=1, rc=2.9375 Bohr: 3p-sz confined orbital
    #     l=1, rc=12.4062 Bohr: 4p-sz confined orbital
    #     l=2, rc=4.6875 Bohr: 3d-sz confined orbital
    #     l=0, rc=4.9688 Bohr: 4s-dz split-valence wave
    #     l=1, rc=2.0781 Bohr: 3p-dz split-valence wave
    #     l=1, rc=7.5469 Bohr: 4p-dz split-valence wave
    #     l=2, rc=2.9375 Bohr: 3d-dz split-valence wave
    #     l=1, rc=8.5156 Bohr: p-type Gaussian polarization
    #   Number of RI-basis functions 0

  Mo:
    name: Molybdenum
    id: ac24daaf086600a00ce6d19a74574df1
    Z: 42.0
    valence: 14
    core: 28
    charge: 0.0
    file: /home/mikei/.pyenv/versions/cemea-env/lib/python3.10/site-packages/gpaw_data/setups/Mo.LDA.gz
    compensation charges: {type: gauss,
                           rc: 0.38,
                           lmax: 2}
    cutoffs: {filter: 2.16,
              core: 1.42}
    projectors:
      #              energy  rcut
      - 4s(2.00)   -64.384   1.238
      - 5s(1.00)    -4.319   1.238
      - 4p(6.00)   -38.595   1.296
      - 5p(0.00)    -1.161   1.296
      - 4d(5.00)    -3.933   1.296
      -  d          23.278   1.296
  
    # LCAO basis set for Mo:
    #   Name: dzp
    #   File: /home/mikei/.pyenv/versions/cemea-env/lib/python3.10/site-packages/gpaw_data/setups/Mo.dzp.basis.gz
    #   Number of radial functions: 11
    #   Number of spherical harmonics: 29
    #     l=0, rc=3.5469 Bohr: 4s-sz confined orbital
    #     l=0, rc=10.0469 Bohr: 5s-sz confined orbital
    #     l=1, rc=4.0781 Bohr: 4p-sz confined orbital
    #     l=1, rc=14.0938 Bohr: 5p-sz confined orbital
    #     l=2, rc=7.2031 Bohr: 4d-sz confined orbital
    #     l=0, rc=2.1250 Bohr: 4s-dz split-valence wave
    #     l=0, rc=6.1250 Bohr: 5s-dz split-valence wave
    #     l=1, rc=2.5469 Bohr: 4p-dz split-valence wave
    #     l=1, rc=8.7656 Bohr: 5p-dz split-valence wave
    #     l=2, rc=4.2344 Bohr: 4d-dz split-valence wave
    #     l=1, rc=10.0469 Bohr: p-type Gaussian polarization
    #   Number of RI-basis functions 0

  B:
    name: Boron
    id: 02e2e0e88ef95f403158802f6b0f4231
    Z: 5.0
    valence: 3
    core: 2
    charge: 0.0
    file: /home/mikei/.pyenv/versions/cemea-env/lib/python3.10/site-packages/gpaw_data/setups/B.LDA.gz
    compensation charges: {type: gauss,
                           rc: 0.20,
                           lmax: 2}
    cutoffs: {filter: 1.14,
              core: 1.42}
    projectors:
      #              energy  rcut
      - 2s(2.00)    -9.383   0.635
      - 2p(1.00)    -3.714   0.635
      -  s          17.828   0.635
      -  p          23.498   0.635
      -  d           0.000   0.635
  
    # LCAO basis set for B:
    #   Name: dzp
    #   File: /home/mikei/.pyenv/versions/cemea-env/lib/python3.10/site-packages/gpaw_data/setups/B.dzp.basis.gz
    #   Number of radial functions: 5
    #   Number of spherical harmonics: 13
    #     l=0, rc=6.6719 Bohr: 2s-sz confined orbital
    #     l=1, rc=8.2188 Bohr: 2p-sz confined orbital
    #     l=0, rc=3.7500 Bohr: 2s-dz split-valence wave
    #     l=1, rc=4.6094 Bohr: 2p-dz split-valence wave
    #     l=2, rc=8.2188 Bohr: d-type Gaussian polarization
    #   Number of RI-basis functions 0

  Pd:
    name: Palladium
    id: e532e18c0482708fc2e61045fa7bdb18
    Z: 46.0
    valence: 16
    core: 30
    charge: 0.0
    file: /home/mikei/.pyenv/versions/cemea-env/lib/python3.10/site-packages/gpaw_data/setups/Pd.LDA.gz
    compensation charges: {type: gauss,
                           rc: 0.38,
                           lmax: 2}
    cutoffs: {filter: 2.38,
              core: 2.28}
    projectors:
      #              energy  rcut
      - 5s(0.00)    -3.604   1.228
      - 4p(6.00)   -51.371   1.360
      - 5p(0.00)    -0.356   1.360
      - 4d(10.00)    -4.308   1.228
      -  s          23.607   1.228
      -  d          22.904   1.228
  
    # LCAO basis set for Pd:
    #   Name: dzp
    #   File: /home/mikei/.pyenv/versions/cemea-env/lib/python3.10/site-packages/gpaw_data/setups/Pd.dzp.basis.gz
    #   Number of radial functions: 9
    #   Number of spherical harmonics: 27
    #     l=0, rc=10.0312 Bohr: 5s-sz confined orbital
    #     l=1, rc=3.5312 Bohr: 4p-sz confined orbital
    #     l=1, rc=16.0000 Bohr: 5p-sz confined orbital
    #     l=2, rc=6.2031 Bohr: 4d-sz confined orbital
    #     l=0, rc=6.0156 Bohr: 5s-dz split-valence wave
    #     l=1, rc=2.4062 Bohr: 4p-dz split-valence wave
    #     l=1, rc=9.9375 Bohr: 5p-dz split-valence wave
    #     l=2, rc=3.6719 Bohr: 4d-dz split-valence wave
    #     l=1, rc=10.0312 Bohr: p-type Gaussian polarization
    #   Number of RI-basis functions 0

Reference energy: -2477943.472992  # eV

Spin-paired calculation

Convergence criteria:
 Maximum [total energy] change in last 3 cyles: 1e-05 eV / valence electron
 Maximum integral of absolute [dens]ity change: 0.0001 electrons / valence electron
 Maximum integral of absolute [eigenst]ate change: 1e-05 eV^2 / valence electron
 Maximum number of scf [iter]ations: 333
 (Square brackets indicate name in SCF output, whereas a 'c' in
 the SCF output indicates the quantity has converged.)

Symmetries present (total): 2

  ( 1  0  0)  ( 0  1  0)
  ( 0  1  0)  ( 1  0  0)
  ( 0  0  1)  ( 0  0  1)

16 k-points: 4 x 4 x 1 Monkhorst-Pack grid
6 k-points in the irreducible part of the Brillouin zone
       k-points in crystal coordinates                weights
   0:     0.12500000   -0.12500000    0.00000000          2/16
   1:     0.12500000    0.12500000    0.00000000          2/16
   2:     0.37500000   -0.37500000    0.00000000          2/16
   3:     0.37500000   -0.12500000    0.00000000          4/16
   4:     0.37500000    0.12500000    0.00000000          4/16
   5:     0.37500000    0.37500000    0.00000000          2/16

Wave functions: LCAO
  Diagonalizer: Serial LAPACK
  Atomic Correction: dense with blas
  Data-type: complex
 

Occupation numbers: Fermi-Dirac:
  width: 0.1000  # eV
 

Eigensolver
   LCAO using direct dense diagonalizer 

Densities:
  Coarse grid: 36*36*124 grid
  Fine grid: 72*72*248 grid
  Total Charge: 0.000000 

Density mixing:
  Method: separate
  Backend: pulay
  Linear mixing parameter: 0.05
  old densities: 5
  Damping of long wavelength oscillations: 50 

Hamiltonian:
  XC and Coulomb potentials evaluated on a 72*72*248 grid
  Using the LDA Exchange-Correlation functional
  Interpolation: tri-quintic (5. degree polynomial)
  Poisson solver: FastPoissonSolver using
    Stencil: 6*3+1=19 point O(h^6) finite-difference Laplacian
    FFT axes: [np.int64(0), np.int64(1), np.int64(2)]
    FST axes: []
 

Memory estimate:
  Process memory now: 4818.40 MiB
  Calculator: 894.38 MiB
    Density: 221.60 MiB
      Arrays: 31.88 MiB
      Localized functions: 177.46 MiB
      Mixer: 12.26 MiB
    Hamiltonian: 34.19 MiB
      Arrays: 20.84 MiB
      XC: 0.00 MiB
      Poisson: 0.00 MiB
      vbar: 13.35 MiB
    Wavefunctions: 638.59 MiB
      C [qnM]: 49.02 MiB
      S, T [2 x qmm]: 285.19 MiB
      P [aqMi]: 6.03 MiB
      BasisFunctions: 298.36 MiB
      Eigensolver: 0.00 MiB

Total number of cores used: 1

Number of atoms: 48
Number of atomic orbitals: 1248
Number of bands in calculation: 429
Number of valence electrons: 708
Bands to converge: occupied

... initialized

Initializing position-dependent things.

Density initialized from atomic densities
      .-----------------.  
     /|                 |  
    / |                 |  
   /  |                 |  
  /   |                 |  
 *    |                 |  
 |    |                 |  
 |    |                 |  
 |    |                 |  
 |    |                 |  
 |    | Pd    Pd        |  
 |    |                 |  
 |    PdB   Pd B        |  
 |    |                 |  
 |    B      B          |  
 | Mo |   Mo            |  
 |  Ni|   Ni    Ni      |  
 Mo   | Mo              |  
 | Ni | NNi   NNi   Ni  |  
 |    Ni    Ni    Ni    |  
 Ni   |Ni    Ni         |  
 |  NNi   NNi   NNi     |  
 | Ni | NNi   NNi   Ni  |  
 |    |                 |  
 Ni   NNi   NNi   Ni    |  
 |   Ni    Ni    Ni     |  
 |    |                 |  
 |    |                 |  
 |    |                 |  
 |    |                 |  
 |    |                 |  
 |    .-----------------.  
 |   /                 /   
 |  /                 /    
 | /                 /     
 |/                 /      
 *-----------------*       

Atomic positions and initial magnetic moments

Positions:
   0 Ni     1.244508    1.244508    8.000000    ( 0.0000,  0.0000,  0.0000)
   1 Ni     3.733524    1.244508    8.000000    ( 0.0000,  0.0000,  0.0000)
   2 Ni     6.222540    1.244508    8.000000    ( 0.0000,  0.0000,  0.0000)
   3 Ni     1.244508    3.733524    8.000000    ( 0.0000,  0.0000,  0.0000)
   4 Ni     3.733524    3.733524    8.000000    ( 0.0000,  0.0000,  0.0000)
   5 Ni     6.222540    3.733524    8.000000    ( 0.0000,  0.0000,  0.0000)
   6 Ni     1.244508    6.222540    8.000000    ( 0.0000,  0.0000,  0.0000)
   7 Ni     3.733524    6.222540    8.000000    ( 0.0000,  0.0000,  0.0000)
   8 Ni     6.222540    6.222540    8.000000    ( 0.0000,  0.0000,  0.0000)
   9 Ni     0.000000    0.000000    9.760000    ( 0.0000,  0.0000,  0.0000)
  10 Ni     2.489016    0.000000    9.760000    ( 0.0000,  0.0000,  0.0000)
  11 Ni     4.978032    0.000000    9.760000    ( 0.0000,  0.0000,  0.0000)
  12 Ni     0.000000    2.489016    9.760000    ( 0.0000,  0.0000,  0.0000)
  13 Ni     2.489016    2.489016    9.760000    ( 0.0000,  0.0000,  0.0000)
  14 Ni     4.978032    2.489016    9.760000    ( 0.0000,  0.0000,  0.0000)
  15 Ni     0.000000    4.978032    9.760000    ( 0.0000,  0.0000,  0.0000)
  16 Ni     2.489016    4.978032    9.760000    ( 0.0000,  0.0000,  0.0000)
  17 Ni     4.978032    4.978032    9.760000    ( 0.0000,  0.0000,  0.0000)
  18 Ni     1.244508    1.244508   11.520000    ( 0.0000,  0.0000,  0.0000)
  19 Ni     3.733524    1.244508   11.520000    ( 0.0000,  0.0000,  0.0000)
  20 Ni     6.222540    1.244508   11.520000    ( 0.0000,  0.0000,  0.0000)
  21 Ni     1.244508    3.733524   11.520000    ( 0.0000,  0.0000,  0.0000)
  22 Ni     3.733524    3.733524   11.520000    ( 0.0000,  0.0000,  0.0000)
  23 Ni     6.222540    3.733524   11.520000    ( 0.0000,  0.0000,  0.0000)
  24 Ni     1.244508    6.222540   11.520000    ( 0.0000,  0.0000,  0.0000)
  25 Ni     3.733524    6.222540   11.520000    ( 0.0000,  0.0000,  0.0000)
  26 Ni     6.222540    6.222540   11.520000    ( 0.0000,  0.0000,  0.0000)
  27 Ni     0.000000    0.000000   13.280000    ( 0.0000,  0.0000,  0.0000)
  28 Ni     2.489016    0.000000   13.280000    ( 0.0000,  0.0000,  0.0000)
  29 Ni     4.978032    0.000000   13.280000    ( 0.0000,  0.0000,  0.0000)
  30 Ni     0.000000    2.489016   13.280000    ( 0.0000,  0.0000,  0.0000)
  31 Ni     2.489016    2.489016   13.280000    ( 0.0000,  0.0000,  0.0000)
  32 Ni     4.978032    2.489016   13.280000    ( 0.0000,  0.0000,  0.0000)
  33 Ni     0.000000    4.978032   13.280000    ( 0.0000,  0.0000,  0.0000)
  34 Ni     2.489016    4.978032   13.280000    ( 0.0000,  0.0000,  0.0000)
  35 Ni     4.978032    4.978032   13.280000    ( 0.0000,  0.0000,  0.0000)
  36 Mo     0.000000    0.000000   15.480000    ( 0.0000,  0.0000,  0.0000)
  37 B      1.525000    1.525000   17.005000    ( 0.0000,  0.0000,  0.0000)
  38 Mo     0.000000    3.050000   15.480000    ( 0.0000,  0.0000,  0.0000)
  39 B      1.525000    4.575000   17.005000    ( 0.0000,  0.0000,  0.0000)
  40 Mo     3.050000    0.000000   15.480000    ( 0.0000,  0.0000,  0.0000)
  41 B      4.575000    1.525000   17.005000    ( 0.0000,  0.0000,  0.0000)
  42 Mo     3.050000    3.050000   15.480000    ( 0.0000,  0.0000,  0.0000)
  43 B      4.575000    4.575000   17.005000    ( 0.0000,  0.0000,  0.0000)
  44 Pd     1.761494    1.761494   18.805000    ( 0.0000,  0.0000,  0.0000)
  45 Pd     1.761494    4.161494   18.805000    ( 0.0000,  0.0000,  0.0000)
  46 Pd     4.161494    1.761494   18.805000    ( 0.0000,  0.0000,  0.0000)
  47 Pd     4.161494    4.161494   18.805000    ( 0.0000,  0.0000,  0.0000)

Unit cell:
           periodic     x           y           z      points  spacing
  1. axis:    yes    7.467048    0.000000    0.000000    36     0.2074
  2. axis:    yes    0.000000    7.467048    0.000000    36     0.2074
  3. axis:    yes    0.000000    0.000000   25.005000   124     0.2017

  Lengths:   7.467048   7.467048  25.005000
  Angles:   90.000000  90.000000  90.000000

Effective grid spacing dv^(1/3) = 0.2055

     iter     time        total  log10-change:
                         energy   eigst   dens
iter:   1 09:09:33  -800.184368        c
iter:   2 09:11:30 -3344.435097        c -1.03
iter:   3 09:13:12  -462.186363        c -0.43
iter:   4 09:15:19  -546.275354        c -1.27
iter:   5 09:16:45  -435.304558        c -1.04
iter:   6 09:19:12  -381.653177        c -1.32
iter:   7 09:20:54  -392.051007        c -1.48
iter:   8 09:22:26  -376.806307        c -1.49
iter:   9 09:23:49  -354.614897        c -1.61
iter:  10 09:25:22  -405.194569        c -1.66
iter:  11 09:27:25  -355.919085        c -1.32
iter:  12 09:29:29  -361.639377        c -1.64
iter:  13 09:31:10  -359.931678        c -1.68
iter:  14 09:33:10  -359.370962        c -1.72
iter:  15 09:35:10  -362.344118        c -1.76
iter:  16 09:36:55  -392.032264        c -1.66
iter:  17 09:38:23  -358.735458        c -1.38
iter:  18 09:40:26  -343.506260        c -1.77
iter:  19 09:42:38  -342.909560        c -1.94
iter:  20 09:44:25  -351.222626        c -1.96
iter:  21 09:45:57  -342.600243        c -1.77
iter:  22 09:47:56  -342.575713        c -1.96
iter:  23 09:49:25  -340.573152        c -2.10
iter:  24 09:50:59  -340.038776        c -2.12
iter:  25 09:52:39  -339.899539        c -2.21
iter:  26 09:54:16  -340.893387        c -2.39
iter:  27 09:55:54  -340.676872        c -2.10
iter:  28 09:57:58  -339.735325        c -2.18
iter:  29 10:00:08  -340.154255        c -2.26
iter:  30 10:01:40  -339.152812        c -2.23
iter:  31 10:03:30  -339.239962        c -2.71
iter:  32 10:05:17  -339.125698        c -2.61
iter:  33 10:07:17  -339.088636        c -2.75
iter:  34 10:09:12  -339.095730        c -2.85
iter:  35 10:10:55  -339.075445        c -2.88
iter:  36 10:12:43  -339.260560        c -2.98
iter:  37 10:14:21  -339.094259        c -2.60
iter:  38 10:16:44  -339.154377        c -2.86
iter:  39 10:18:32  -339.087210        c -2.73
iter:  40 10:20:22  -339.066562        c -2.97
iter:  41 10:21:52  -339.080683        c -2.92
iter:  42 10:24:04  -339.055954        c -2.95
iter:  43 10:25:42  -339.047979        c -3.19
iter:  44 10:27:34  -339.050776        c -3.22
iter:  45 10:29:26  -339.079001        c -3.30
iter:  46 10:31:11  -339.046091        c -3.05
iter:  47 10:32:36  -339.060970        c -3.35
iter:  48 10:34:01  -339.045598        c -3.24
iter:  49 10:35:46  -339.048599        c -3.47
iter:  50 10:37:29  -339.049128c       c -3.51
iter:  51 10:39:07  -339.051888c       c -3.56
iter:  52 10:40:29  -339.052583c       c -3.55
iter:  53 10:42:11  -339.046813c       c -3.52
iter:  54 10:44:11  -339.049477c       c -3.64
iter:  55 10:46:03  -339.050819c       c -3.76
iter:  56 10:48:00  -339.050043c       c -3.71
iter:  57 10:49:59  -339.059999        c -3.80
iter:  58 10:51:58  -339.048079        c -3.37
iter:  59 10:53:17  -339.049797        c -3.68
iter:  60 10:54:54  -339.050375c       c -3.92
iter:  61 10:56:49  -339.049196c       c -3.76
iter:  62 10:58:23  -339.049195c       c -3.80
iter:  63 11:00:07  -339.048265c       c -3.97
iter:  64 11:01:59  -339.049756c       c -4.04c

Converged after 64 iterations.

Dipole moment: (-13.824240, -13.824240, 0.535442) |e|*Ang

Energy contributions relative to reference atoms: (reference = -2477943.472992)

Kinetic:         +6.861727
Potential:      +15.552745
External:        +0.000000
XC:            -358.464536
Entropy (-ST):   -3.542713
Local:           -1.228336
SIC:             +0.000000
--------------------------
Free energy:   -340.821112
Extrapolated:  -339.049756

Showing only first 2 kpts
 Kpt  Band  Eigenvalues  Occupancy
  0   352      0.41846    1.30580
  0   353      0.43110    1.24745
  0   354      0.43780    1.21576
  0   355      0.44805    1.16637

  1   352      0.41655    1.31440
  1   353      0.42832    1.26043
  1   354      0.43849    1.21244
  1   355      0.45065    1.15373


Fermi level: 0.48164

No gap
No difference between direct/indirect transitions
Timing:                              incl.     excl.
-----------------------------------------------------------
Basic WFS set positions:             0.001     0.001   0.0% |
Basis functions set positions:       0.184     0.184   0.0% |
LCAO WFS Initialize:                 0.402     0.091   0.0% |
 Hamiltonian:                        0.311     0.000   0.0% |
  Atomic:                            0.156     0.002   0.0% |
   XC Correction:                    0.154     0.154   0.0% |
  Calculate atomic Hamiltonians:     0.025     0.025   0.0% |
  Communicate:                       0.000     0.000   0.0% |
  Hartree integrate/restrict:        0.009     0.009   0.0% |
  Initialize Hamiltonian:            0.001     0.001   0.0% |
  Poisson:                           0.073     0.005   0.0% |
   Communicate from 1D:              0.007     0.007   0.0% |
   Communicate from 2D:              0.007     0.007   0.0% |
   Communicate to 1D:                0.007     0.007   0.0% |
   Communicate to 2D:                0.009     0.009   0.0% |
   FFT 1D:                           0.016     0.016   0.0% |
   FFT 2D:                           0.021     0.021   0.0% |
  XC 3D grid:                        0.043     0.043   0.0% |
  vbar:                              0.004     0.004   0.0% |
P tci:                               3.763     3.763   0.1% |
SCF-cycle:                        6790.794     0.212   0.0% |
 Density:                         3533.784     0.001   0.0% |
  Atomic density matrices:           0.897     0.897   0.0% |
  Mix:                               8.050     8.050   0.1% |
  Multipole moments:                 0.017     0.017   0.0% |
  Normalize:                         0.006     0.006   0.0% |
  Pseudo density:                 3524.812     0.024   0.0% |
   Calculate density matrix:        10.330    10.330   0.2% |
   Construct density:             3514.216  3514.216  51.7% |--------------------|
   Symmetrize density:               0.242     0.242   0.0% |
 Hamiltonian:                       21.303     0.003   0.0% |
  Atomic:                            9.744     0.110   0.0% |
   XC Correction:                    9.634     9.634   0.1% |
  Calculate atomic Hamiltonians:     1.617     1.617   0.0% |
  Communicate:                       0.000     0.000   0.0% |
  Hartree integrate/restrict:        0.624     0.624   0.0% |
  Poisson:                           4.375     0.322   0.0% |
   Communicate from 1D:              0.489     0.489   0.0% |
   Communicate from 2D:              0.466     0.466   0.0% |
   Communicate to 1D:                0.425     0.425   0.0% |
   Communicate to 2D:                0.466     0.466   0.0% |
   FFT 1D:                           0.873     0.873   0.0% |
   FFT 2D:                           1.334     1.334   0.0% |
  XC 3D grid:                        4.268     4.268   0.1% |
  vbar:                              0.672     0.672   0.0% |
 LCAO eigensolver:                3235.495     1.195   0.0% |
  Calculate projections:            79.877    79.877   1.2% |
  DenseAtomicCorrection:           223.264   223.264   3.3% ||
  Distribute overlap matrix:         2.581     2.581   0.0% |
  Orbital Layouts:                2118.537  2118.537  31.1% |-----------|
  Potential matrix:                749.966   749.966  11.0% |---|
  Sum over cells:                   60.075    60.075   0.9% |
ST tci:                              1.870     1.870   0.0% |
Set symmetry:                        0.000     0.000   0.0% |
TCI: Evaluate splines:               0.631     0.631   0.0% |
mktci:                               0.027     0.027   0.0% |
Other:                               4.044     4.044   0.1% |
-----------------------------------------------------------
Total:                                      6801.716 100.0%

Memory usage: 4.71 GiB
Date: Tue Mar  3 11:01:59 2026
