
  ___ ___ ___ _ _ _  
 |   |   |_  | | | | 
 | | | | | . | | | | 
 |__ |  _|___|_____|  25.7.0
 |___|_|             

User:   mikei@Z790-AORUS-ELITE-AX
Date:   Tue Mar  3 11:01:59 2026
Arch:   x86_64
Pid:    89048
CWD:    /home/mikei/Dokumenty/code/cemea/ocx
Python: 3.10.16
gpaw:   /home/mikei/.pyenv/versions/cemea-env/lib/python3.10/site-packages/gpaw
_gpaw:  /home/mikei/.pyenv/versions/cemea-env/lib/python3.10/site-packages/
        _gpaw.cpython-310-x86_64-linux-gnu.so
ase:    /home/mikei/.pyenv/versions/cemea-env/lib/python3.10/site-packages/ase (version 3.27.0)
numpy:  /home/mikei/.pyenv/versions/cemea-env/lib/python3.10/site-packages/numpy (version 2.2.6)
scipy:  /home/mikei/.pyenv/versions/cemea-env/lib/python3.10/site-packages/scipy (version 1.15.3)
libxc:  2.x.y
units:  Angstrom and eV
cores: 1
OpenMP: False
OMP_NUM_THREADS: 1

Input parameters:
  basis: dzp
  convergence: {density: 0.0001,
                eigenstates: 1e-05,
                energy: 1e-05}
  kpts: [4 4 1]
  mode: lcao

System changes: positions, numbers, cell, pbc, initial_charges, initial_magmoms 

Initialize ...

species:
  Ni:
    name: Nickel
    id: 1802175e8de9ea26d9f4394ec1a7d564
    Z: 28.0
    valence: 16
    core: 12
    charge: 0.0
    file: /home/mikei/.pyenv/versions/cemea-env/lib/python3.10/site-packages/gpaw_data/setups/Ni.LDA.gz
    compensation charges: {type: gauss,
                           rc: 0.36,
                           lmax: 2}
    cutoffs: {filter: 2.14,
              core: 1.98}
    projectors:
      #              energy  rcut
      - 4s(2.00)    -5.858   1.164
      - 3p(6.00)   -71.266   1.207
      - 4p(0.00)    -1.338   1.207
      - 3d(8.00)    -9.141   1.138
      -  s          21.353   1.164
      -  d          18.071   1.138
  
    # LCAO basis set for Ni:
    #   Name: dzp
    #   File: /home/mikei/.pyenv/versions/cemea-env/lib/python3.10/site-packages/gpaw_data/setups/Ni.dzp.basis.gz
    #   Number of radial functions: 9
    #   Number of spherical harmonics: 27
    #     l=0, rc=8.5156 Bohr: 4s-sz confined orbital
    #     l=1, rc=2.9375 Bohr: 3p-sz confined orbital
    #     l=1, rc=12.4062 Bohr: 4p-sz confined orbital
    #     l=2, rc=4.6875 Bohr: 3d-sz confined orbital
    #     l=0, rc=4.9688 Bohr: 4s-dz split-valence wave
    #     l=1, rc=2.0781 Bohr: 3p-dz split-valence wave
    #     l=1, rc=7.5469 Bohr: 4p-dz split-valence wave
    #     l=2, rc=2.9375 Bohr: 3d-dz split-valence wave
    #     l=1, rc=8.5156 Bohr: p-type Gaussian polarization
    #   Number of RI-basis functions 0

  Mo:
    name: Molybdenum
    id: ac24daaf086600a00ce6d19a74574df1
    Z: 42.0
    valence: 14
    core: 28
    charge: 0.0
    file: /home/mikei/.pyenv/versions/cemea-env/lib/python3.10/site-packages/gpaw_data/setups/Mo.LDA.gz
    compensation charges: {type: gauss,
                           rc: 0.38,
                           lmax: 2}
    cutoffs: {filter: 2.16,
              core: 1.42}
    projectors:
      #              energy  rcut
      - 4s(2.00)   -64.384   1.238
      - 5s(1.00)    -4.319   1.238
      - 4p(6.00)   -38.595   1.296
      - 5p(0.00)    -1.161   1.296
      - 4d(5.00)    -3.933   1.296
      -  d          23.278   1.296
  
    # LCAO basis set for Mo:
    #   Name: dzp
    #   File: /home/mikei/.pyenv/versions/cemea-env/lib/python3.10/site-packages/gpaw_data/setups/Mo.dzp.basis.gz
    #   Number of radial functions: 11
    #   Number of spherical harmonics: 29
    #     l=0, rc=3.5469 Bohr: 4s-sz confined orbital
    #     l=0, rc=10.0469 Bohr: 5s-sz confined orbital
    #     l=1, rc=4.0781 Bohr: 4p-sz confined orbital
    #     l=1, rc=14.0938 Bohr: 5p-sz confined orbital
    #     l=2, rc=7.2031 Bohr: 4d-sz confined orbital
    #     l=0, rc=2.1250 Bohr: 4s-dz split-valence wave
    #     l=0, rc=6.1250 Bohr: 5s-dz split-valence wave
    #     l=1, rc=2.5469 Bohr: 4p-dz split-valence wave
    #     l=1, rc=8.7656 Bohr: 5p-dz split-valence wave
    #     l=2, rc=4.2344 Bohr: 4d-dz split-valence wave
    #     l=1, rc=10.0469 Bohr: p-type Gaussian polarization
    #   Number of RI-basis functions 0

  B:
    name: Boron
    id: 02e2e0e88ef95f403158802f6b0f4231
    Z: 5.0
    valence: 3
    core: 2
    charge: 0.0
    file: /home/mikei/.pyenv/versions/cemea-env/lib/python3.10/site-packages/gpaw_data/setups/B.LDA.gz
    compensation charges: {type: gauss,
                           rc: 0.20,
                           lmax: 2}
    cutoffs: {filter: 1.14,
              core: 1.42}
    projectors:
      #              energy  rcut
      - 2s(2.00)    -9.383   0.635
      - 2p(1.00)    -3.714   0.635
      -  s          17.828   0.635
      -  p          23.498   0.635
      -  d           0.000   0.635
  
    # LCAO basis set for B:
    #   Name: dzp
    #   File: /home/mikei/.pyenv/versions/cemea-env/lib/python3.10/site-packages/gpaw_data/setups/B.dzp.basis.gz
    #   Number of radial functions: 5
    #   Number of spherical harmonics: 13
    #     l=0, rc=6.6719 Bohr: 2s-sz confined orbital
    #     l=1, rc=8.2188 Bohr: 2p-sz confined orbital
    #     l=0, rc=3.7500 Bohr: 2s-dz split-valence wave
    #     l=1, rc=4.6094 Bohr: 2p-dz split-valence wave
    #     l=2, rc=8.2188 Bohr: d-type Gaussian polarization
    #   Number of RI-basis functions 0

  Pd:
    name: Palladium
    id: e532e18c0482708fc2e61045fa7bdb18
    Z: 46.0
    valence: 16
    core: 30
    charge: 0.0
    file: /home/mikei/.pyenv/versions/cemea-env/lib/python3.10/site-packages/gpaw_data/setups/Pd.LDA.gz
    compensation charges: {type: gauss,
                           rc: 0.38,
                           lmax: 2}
    cutoffs: {filter: 2.38,
              core: 2.28}
    projectors:
      #              energy  rcut
      - 5s(0.00)    -3.604   1.228
      - 4p(6.00)   -51.371   1.360
      - 5p(0.00)    -0.356   1.360
      - 4d(10.00)    -4.308   1.228
      -  s          23.607   1.228
      -  d          22.904   1.228
  
    # LCAO basis set for Pd:
    #   Name: dzp
    #   File: /home/mikei/.pyenv/versions/cemea-env/lib/python3.10/site-packages/gpaw_data/setups/Pd.dzp.basis.gz
    #   Number of radial functions: 9
    #   Number of spherical harmonics: 27
    #     l=0, rc=10.0312 Bohr: 5s-sz confined orbital
    #     l=1, rc=3.5312 Bohr: 4p-sz confined orbital
    #     l=1, rc=16.0000 Bohr: 5p-sz confined orbital
    #     l=2, rc=6.2031 Bohr: 4d-sz confined orbital
    #     l=0, rc=6.0156 Bohr: 5s-dz split-valence wave
    #     l=1, rc=2.4062 Bohr: 4p-dz split-valence wave
    #     l=1, rc=9.9375 Bohr: 5p-dz split-valence wave
    #     l=2, rc=3.6719 Bohr: 4d-dz split-valence wave
    #     l=1, rc=10.0312 Bohr: p-type Gaussian polarization
    #   Number of RI-basis functions 0

  H:
    name: Hydrogen
    id: 4766778ce56282eaa64abeb28b7c1de3
    Z: 1.0
    valence: 1
    core: 0
    charge: 0.0
    file: /home/mikei/.pyenv/versions/cemea-env/lib/python3.10/site-packages/gpaw_data/setups/H.LDA.gz
    compensation charges: {type: gauss,
                           rc: 0.15,
                           lmax: 2}
    cutoffs: {filter: 0.85,
              core: 0.53}
    projectors:
      #              energy  rcut
      - 1s(1.00)    -6.353   0.476
      -  s          20.858   0.476
      -  p           0.000   0.476
  
    # LCAO basis set for H:
    #   Name: dzp
    #   File: /home/mikei/.pyenv/versions/cemea-env/lib/python3.10/site-packages/gpaw_data/setups/H.dzp.basis.gz
    #   Number of radial functions: 3
    #   Number of spherical harmonics: 5
    #     l=0, rc=6.4219 Bohr: 1s-sz confined orbital
    #     l=0, rc=3.6094 Bohr: 1s-dz split-valence wave
    #     l=1, rc=6.4219 Bohr: p-type Gaussian polarization
    #   Number of RI-basis functions 0

Reference energy: -2477955.601950  # eV

Spin-paired calculation

Convergence criteria:
 Maximum [total energy] change in last 3 cyles: 1e-05 eV / valence electron
 Maximum integral of absolute [dens]ity change: 0.0001 electrons / valence electron
 Maximum integral of absolute [eigenst]ate change: 1e-05 eV^2 / valence electron
 Maximum number of scf [iter]ations: 333
 (Square brackets indicate name in SCF output, whereas a 'c' in
 the SCF output indicates the quantity has converged.)

Symmetries present (total): 2

  ( 1  0  0)  ( 0  1  0)
  ( 0  1  0)  ( 1  0  0)
  ( 0  0  1)  ( 0  0  1)

16 k-points: 4 x 4 x 1 Monkhorst-Pack grid
6 k-points in the irreducible part of the Brillouin zone
       k-points in crystal coordinates                weights
   0:     0.12500000   -0.12500000    0.00000000          2/16
   1:     0.12500000    0.12500000    0.00000000          2/16
   2:     0.37500000   -0.37500000    0.00000000          2/16
   3:     0.37500000   -0.12500000    0.00000000          4/16
   4:     0.37500000    0.12500000    0.00000000          4/16
   5:     0.37500000    0.37500000    0.00000000          2/16

Wave functions: LCAO
  Diagonalizer: Serial LAPACK
  Atomic Correction: dense with blas
  Data-type: complex
 

Occupation numbers: Fermi-Dirac:
  width: 0.1000  # eV
 

Eigensolver
   LCAO using direct dense diagonalizer 

Densities:
  Coarse grid: 36*36*124 grid
  Fine grid: 72*72*248 grid
  Total Charge: 0.000000 

Density mixing:
  Method: separate
  Backend: pulay
  Linear mixing parameter: 0.05
  old densities: 5
  Damping of long wavelength oscillations: 50 

Hamiltonian:
  XC and Coulomb potentials evaluated on a 72*72*248 grid
  Using the LDA Exchange-Correlation functional
  Interpolation: tri-quintic (5. degree polynomial)
  Poisson solver: FastPoissonSolver using
    Stencil: 6*3+1=19 point O(h^6) finite-difference Laplacian
    FFT axes: [np.int64(0), np.int64(1), np.int64(2)]
    FST axes: []
 

Memory estimate:
  Process memory now: 4818.40 MiB
  Calculator: 897.90 MiB
    Density: 221.83 MiB
      Arrays: 31.88 MiB
      Localized functions: 177.69 MiB
      Mixer: 12.26 MiB
    Hamiltonian: 34.21 MiB
      Arrays: 20.84 MiB
      XC: 0.00 MiB
      Poisson: 0.00 MiB
      vbar: 13.37 MiB
    Wavefunctions: 641.86 MiB
      C [qnM]: 49.33 MiB
      S, T [2 x qmm]: 287.48 MiB
      P [aqMi]: 6.09 MiB
      BasisFunctions: 298.97 MiB
      Eigensolver: 0.00 MiB

Total number of cores used: 1

Number of atoms: 49
Number of atomic orbitals: 1253
Number of bands in calculation: 430
Number of valence electrons: 709
Bands to converge: occupied

... initialized

Initializing position-dependent things.

Density initialized from atomic densities
      .-----------------.  
     /|                 |  
    / |                 |  
   /  |                 |  
  /   |                 |  
 *    |                 |  
 |    |                 |  
 |    |                 |  
 |    |                 |  
 |    |   H             |  
 |    | Pd    Pd        |  
 |    |                 |  
 |    PdB   Pd B        |  
 |    |                 |  
 |    B      B          |  
 | Mo |   Mo            |  
 |  Ni|   Ni    Ni      |  
 Mo   | Mo              |  
 | Ni | NNi   NNi   Ni  |  
 |    Ni    Ni    Ni    |  
 Ni   |Ni    Ni         |  
 |  NNi   NNi   NNi     |  
 | Ni | NNi   NNi   Ni  |  
 |    |                 |  
 Ni   NNi   NNi   Ni    |  
 |   Ni    Ni    Ni     |  
 |    |                 |  
 |    |                 |  
 |    |                 |  
 |    |                 |  
 |    |                 |  
 |    .-----------------.  
 |   /                 /   
 |  /                 /    
 | /                 /     
 |/                 /      
 *-----------------*       

Atomic positions and initial magnetic moments

Positions:
   0 Ni     1.244508    1.244508    8.000000    ( 0.0000,  0.0000,  0.0000)
   1 Ni     3.733524    1.244508    8.000000    ( 0.0000,  0.0000,  0.0000)
   2 Ni     6.222540    1.244508    8.000000    ( 0.0000,  0.0000,  0.0000)
   3 Ni     1.244508    3.733524    8.000000    ( 0.0000,  0.0000,  0.0000)
   4 Ni     3.733524    3.733524    8.000000    ( 0.0000,  0.0000,  0.0000)
   5 Ni     6.222540    3.733524    8.000000    ( 0.0000,  0.0000,  0.0000)
   6 Ni     1.244508    6.222540    8.000000    ( 0.0000,  0.0000,  0.0000)
   7 Ni     3.733524    6.222540    8.000000    ( 0.0000,  0.0000,  0.0000)
   8 Ni     6.222540    6.222540    8.000000    ( 0.0000,  0.0000,  0.0000)
   9 Ni     0.000000    0.000000    9.760000    ( 0.0000,  0.0000,  0.0000)
  10 Ni     2.489016    0.000000    9.760000    ( 0.0000,  0.0000,  0.0000)
  11 Ni     4.978032    0.000000    9.760000    ( 0.0000,  0.0000,  0.0000)
  12 Ni     0.000000    2.489016    9.760000    ( 0.0000,  0.0000,  0.0000)
  13 Ni     2.489016    2.489016    9.760000    ( 0.0000,  0.0000,  0.0000)
  14 Ni     4.978032    2.489016    9.760000    ( 0.0000,  0.0000,  0.0000)
  15 Ni     0.000000    4.978032    9.760000    ( 0.0000,  0.0000,  0.0000)
  16 Ni     2.489016    4.978032    9.760000    ( 0.0000,  0.0000,  0.0000)
  17 Ni     4.978032    4.978032    9.760000    ( 0.0000,  0.0000,  0.0000)
  18 Ni     1.244508    1.244508   11.520000    ( 0.0000,  0.0000,  0.0000)
  19 Ni     3.733524    1.244508   11.520000    ( 0.0000,  0.0000,  0.0000)
  20 Ni     6.222540    1.244508   11.520000    ( 0.0000,  0.0000,  0.0000)
  21 Ni     1.244508    3.733524   11.520000    ( 0.0000,  0.0000,  0.0000)
  22 Ni     3.733524    3.733524   11.520000    ( 0.0000,  0.0000,  0.0000)
  23 Ni     6.222540    3.733524   11.520000    ( 0.0000,  0.0000,  0.0000)
  24 Ni     1.244508    6.222540   11.520000    ( 0.0000,  0.0000,  0.0000)
  25 Ni     3.733524    6.222540   11.520000    ( 0.0000,  0.0000,  0.0000)
  26 Ni     6.222540    6.222540   11.520000    ( 0.0000,  0.0000,  0.0000)
  27 Ni     0.000000    0.000000   13.280000    ( 0.0000,  0.0000,  0.0000)
  28 Ni     2.489016    0.000000   13.280000    ( 0.0000,  0.0000,  0.0000)
  29 Ni     4.978032    0.000000   13.280000    ( 0.0000,  0.0000,  0.0000)
  30 Ni     0.000000    2.489016   13.280000    ( 0.0000,  0.0000,  0.0000)
  31 Ni     2.489016    2.489016   13.280000    ( 0.0000,  0.0000,  0.0000)
  32 Ni     4.978032    2.489016   13.280000    ( 0.0000,  0.0000,  0.0000)
  33 Ni     0.000000    4.978032   13.280000    ( 0.0000,  0.0000,  0.0000)
  34 Ni     2.489016    4.978032   13.280000    ( 0.0000,  0.0000,  0.0000)
  35 Ni     4.978032    4.978032   13.280000    ( 0.0000,  0.0000,  0.0000)
  36 Mo     0.000000    0.000000   15.480000    ( 0.0000,  0.0000,  0.0000)
  37 B      1.525000    1.525000   17.005000    ( 0.0000,  0.0000,  0.0000)
  38 Mo     0.000000    3.050000   15.480000    ( 0.0000,  0.0000,  0.0000)
  39 B      1.525000    4.575000   17.005000    ( 0.0000,  0.0000,  0.0000)
  40 Mo     3.050000    0.000000   15.480000    ( 0.0000,  0.0000,  0.0000)
  41 B      4.575000    1.525000   17.005000    ( 0.0000,  0.0000,  0.0000)
  42 Mo     3.050000    3.050000   15.480000    ( 0.0000,  0.0000,  0.0000)
  43 B      4.575000    4.575000   17.005000    ( 0.0000,  0.0000,  0.0000)
  44 Pd     1.761494    1.761494   18.805000    ( 0.0000,  0.0000,  0.0000)
  45 Pd     1.761494    4.161494   18.805000    ( 0.0000,  0.0000,  0.0000)
  46 Pd     4.161494    1.761494   18.805000    ( 0.0000,  0.0000,  0.0000)
  47 Pd     4.161494    4.161494   18.805000    ( 0.0000,  0.0000,  0.0000)
  48 H      2.961494    2.961494   20.305000    ( 0.0000,  0.0000,  0.0000)

Unit cell:
           periodic     x           y           z      points  spacing
  1. axis:    yes    7.467048    0.000000    0.000000    36     0.2074
  2. axis:    yes    0.000000    7.467048    0.000000    36     0.2074
  3. axis:    yes    0.000000    0.000000   25.005000   124     0.2017

  Lengths:   7.467048   7.467048  25.005000
  Angles:   90.000000  90.000000  90.000000

Effective grid spacing dv^(1/3) = 0.2055

     iter     time        total  log10-change:
                         energy   eigst   dens
iter:   1 11:03:15  -820.902427        c
iter:   2 11:05:03 -3242.377716        c -1.04
iter:   3 11:06:55  -457.712647        c -0.43
iter:   4 11:08:18  -554.065273        c -1.29
iter:   5 11:10:06  -434.470308        c -1.04
iter:   6 11:11:50  -381.308160        c -1.33
iter:   7 11:13:37  -387.612408        c -1.49
iter:   8 11:15:22  -382.166036        c -1.52
iter:   9 11:17:44  -357.681223        c -1.54
iter:  10 11:19:16  -395.421082        c -1.65
iter:  11 11:20:48  -351.623360        c -1.34
iter:  12 11:22:37  -368.485565        c -1.70
iter:  13 11:24:15  -363.943252        c -1.64
iter:  14 11:26:10  -352.355862        c -1.70
iter:  15 11:27:45  -352.610070        c -1.74
iter:  16 11:29:29  -376.939151        c -1.75
iter:  17 11:31:26  -361.359248        c -1.48
iter:  18 11:32:57  -350.170881        c -1.71
iter:  19 11:35:00  -347.469504        c -1.91
iter:  20 11:37:08  -356.011332        c -1.88
iter:  21 11:39:14  -344.696143        c -1.81
iter:  22 11:41:39  -344.119395        c -2.05
iter:  23 11:43:48  -349.247855        c -2.07
iter:  24 11:45:36  -345.356759        c -1.85
iter:  25 11:47:38  -343.727170        c -2.09
iter:  26 11:49:21  -343.246467        c -2.11
iter:  27 11:51:42  -345.775877        c -2.25
iter:  28 11:54:19  -342.804543        c -2.03
iter:  29 11:56:02  -342.908632        c -2.47
iter:  30 11:58:17  -342.575663        c -2.49
iter:  31 12:00:09  -342.663960        c -2.64
iter:  32 12:02:38  -342.624377        c -2.63
iter:  33 12:04:33  -343.131243        c -2.62
iter:  34 12:06:17  -342.574658        c -2.33
iter:  35 12:08:18  -342.539289        c -2.67
iter:  36 12:10:27  -342.697335        c -2.82
iter:  37 12:12:34  -342.595544        c -2.68
iter:  38 12:14:45  -342.479843        c -2.71
iter:  39 12:16:51  -342.464915        c -2.88
iter:  40 12:18:38  -342.443503        c -2.95
iter:  41 12:20:35  -342.479960        c -2.95
iter:  42 12:22:41  -342.478923        c -2.86
iter:  43 12:24:44  -342.497059        c -2.84
iter:  44 12:26:30  -342.455767        c -2.91
iter:  45 12:28:49  -342.444681        c -3.05
iter:  46 12:31:10  -342.471584        c -3.08
iter:  47 12:33:27  -342.445035        c -2.96
iter:  48 12:35:07  -342.429875        c -3.16
iter:  49 12:36:57  -342.422793        c -3.26
iter:  50 12:38:52  -342.422899c       c -3.19
iter:  51 12:40:16  -342.433038        c -3.24
iter:  52 12:42:00  -342.427041        c -3.15
iter:  53 12:43:48  -342.419772        c -3.29
iter:  54 12:45:15  -342.418667        c -3.33
iter:  55 12:46:52  -342.428290        c -3.40
iter:  56 12:48:33  -342.430662        c -3.33
iter:  57 12:50:18  -342.439946        c -3.27
iter:  58 12:52:24  -342.416448        c -3.17
iter:  59 12:54:10  -342.420680        c -3.38
iter:  60 12:56:20  -342.416393c       c -3.52
iter:  61 12:58:08  -342.417326c       c -3.57
iter:  62 13:00:08  -342.417274c       c -3.57
iter:  63 13:01:59  -342.420106c       c -3.61
iter:  64 13:03:52  -342.426355        c -3.24
iter:  65 13:05:51  -342.415260        c -3.34
iter:  66 13:07:33  -342.417972        c -3.68
iter:  67 13:08:56  -342.415116c       c -3.67
iter:  68 13:11:00  -342.414092c       c -3.57
iter:  69 13:12:50  -342.417644c       c -3.70
iter:  70 13:14:33  -342.415838c       c -3.67
iter:  71 13:16:13  -342.414244c       c -3.75
iter:  72 13:17:52  -342.413835c       c -3.87
iter:  73 13:19:28  -342.415450c       c -3.86
iter:  74 13:21:25  -342.414524c       c -3.88
iter:  75 13:23:16  -342.414003c       c -3.95
iter:  76 13:25:29  -342.415086c       c -3.79
iter:  77 13:27:54  -342.414141c       c -3.57
iter:  78 13:29:48  -342.414481c       c -3.94
iter:  79 13:31:36  -342.413226c       c -3.89
iter:  80 13:33:50  -342.413712c       c -3.97
iter:  81 13:35:50  -342.414256c       c -3.99
iter:  82 13:37:57  -342.426080        c -3.86
iter:  83 13:39:44  -342.413845        c -3.32
iter:  84 13:42:07  -342.413690        c -4.00c
iter:  85 13:44:30  -342.413555c       c -4.13c

Converged after 85 iterations.

Dipole moment: (-13.773476, -13.773476, 0.286305) |e|*Ang

Energy contributions relative to reference atoms: (reference = -2477955.601950)

Kinetic:        +13.446124
Potential:       +8.140315
External:        +0.000000
XC:            -360.963298
Entropy (-ST):   -3.558252
Local:           -1.257570
SIC:             +0.000000
--------------------------
Free energy:   -344.192681
Extrapolated:  -342.413555

Showing only first 2 kpts
 Kpt  Band  Eigenvalues  Occupancy
  0   352      0.34250    1.33239
  0   353      0.35399    1.28035
  0   354      0.36758    1.21663
  0   355      0.36971    1.20647

  1   352      0.34619    1.31590
  1   353      0.35221    1.28855
  1   354      0.36956    1.20718
  1   355      0.37441    1.18387


Fermi level: 0.41161

No gap
No difference between direct/indirect transitions
Timing:                              incl.     excl.
-----------------------------------------------------------
Basic WFS set positions:             0.001     0.001   0.0% |
Basis functions set positions:       0.183     0.183   0.0% |
LCAO WFS Initialize:                 0.461     0.130   0.0% |
 Hamiltonian:                        0.331     0.000   0.0% |
  Atomic:                            0.159     0.002   0.0% |
   XC Correction:                    0.157     0.157   0.0% |
  Calculate atomic Hamiltonians:     0.032     0.032   0.0% |
  Communicate:                       0.000     0.000   0.0% |
  Hartree integrate/restrict:        0.011     0.011   0.0% |
  Initialize Hamiltonian:            0.001     0.001   0.0% |
  Poisson:                           0.079     0.005   0.0% |
   Communicate from 1D:              0.008     0.008   0.0% |
   Communicate from 2D:              0.007     0.007   0.0% |
   Communicate to 1D:                0.009     0.009   0.0% |
   Communicate to 2D:                0.011     0.011   0.0% |
   FFT 1D:                           0.015     0.015   0.0% |
   FFT 2D:                           0.024     0.024   0.0% |
  XC 3D grid:                        0.044     0.044   0.0% |
  vbar:                              0.004     0.004   0.0% |
P tci:                               3.734     3.734   0.0% |
SCF-cycle:                        9738.822     0.246   0.0% |
 Density:                         4733.189     0.001   0.0% |
  Atomic density matrices:           1.224     1.224   0.0% |
  Mix:                              11.141    11.141   0.1% |
  Multipole moments:                 0.024     0.024   0.0% |
  Normalize:                         0.009     0.009   0.0% |
  Pseudo density:                 4720.791     0.029   0.0% |
   Calculate density matrix:        13.859    13.859   0.1% |
   Construct density:             4706.581  4706.581  48.3% |------------------|
   Symmetrize density:               0.322     0.322   0.0% |
 Hamiltonian:                       29.284     0.004   0.0% |
  Atomic:                           13.116     0.154   0.0% |
   XC Correction:                   12.962    12.962   0.1% |
  Calculate atomic Hamiltonians:     2.225     2.225   0.0% |
  Communicate:                       0.000     0.000   0.0% |
  Hartree integrate/restrict:        0.872     0.872   0.0% |
  Poisson:                           6.335     0.508   0.0% |
   Communicate from 1D:              0.715     0.715   0.0% |
   Communicate from 2D:              0.625     0.625   0.0% |
   Communicate to 1D:                0.555     0.555   0.0% |
   Communicate to 2D:                0.837     0.837   0.0% |
   FFT 1D:                           1.194     1.194   0.0% |
   FFT 2D:                           1.900     1.900   0.0% |
  XC 3D grid:                        5.759     5.759   0.1% |
  vbar:                              0.973     0.973   0.0% |
 LCAO eigensolver:                4976.102     1.998   0.0% |
  Calculate projections:           107.895   107.895   1.1% |
  DenseAtomicCorrection:           308.773   308.773   3.2% ||
  Distribute overlap matrix:         4.053     4.053   0.0% |
  Orbital Layouts:                3477.010  3477.010  35.7% |-------------|
  Potential matrix:                995.374   995.374  10.2% |---|
  Sum over cells:                   80.999    80.999   0.8% |
ST tci:                              1.873     1.873   0.0% |
Set symmetry:                        0.000     0.000   0.0% |
TCI: Evaluate splines:               0.710     0.710   0.0% |
mktci:                               0.027     0.027   0.0% |
Other:                               5.195     5.195   0.1% |
-----------------------------------------------------------
Total:                                      9751.007 100.0%

Memory usage: 4.71 GiB
Date: Tue Mar  3 13:44:30 2026
