
  ___ ___ ___ _ _ _  
 |   |   |_  | | | | 
 | | | | | . | | | | 
 |__ |  _|___|_____|  25.7.0
 |___|_|             

User:   mikei@Z790-AORUS-ELITE-AX
Date:   Sat Feb 21 02:29:47 2026
Arch:   x86_64
Pid:    89048
CWD:    /home/mikei/Dokumenty/code/cemea/ocx
Python: 3.10.16
gpaw:   /home/mikei/.pyenv/versions/cemea-env/lib/python3.10/site-packages/gpaw
_gpaw:  /home/mikei/.pyenv/versions/cemea-env/lib/python3.10/site-packages/
        _gpaw.cpython-310-x86_64-linux-gnu.so
ase:    /home/mikei/.pyenv/versions/cemea-env/lib/python3.10/site-packages/ase (version 3.27.0)
numpy:  /home/mikei/.pyenv/versions/cemea-env/lib/python3.10/site-packages/numpy (version 2.2.6)
scipy:  /home/mikei/.pyenv/versions/cemea-env/lib/python3.10/site-packages/scipy (version 1.15.3)
libxc:  2.x.y
units:  Angstrom and eV
cores: 1
OpenMP: False
OMP_NUM_THREADS: 1

Input parameters:
  basis: dzp
  convergence: {density: 0.0001,
                eigenstates: 1e-05,
                energy: 1e-05}
  kpts: [4 4 1]
  mode: lcao

System changes: positions, numbers, cell, pbc, initial_charges, initial_magmoms 

Initialize ...

species:
  Mo:
    name: Molybdenum
    id: ac24daaf086600a00ce6d19a74574df1
    Z: 42.0
    valence: 14
    core: 28
    charge: 0.0
    file: /home/mikei/.pyenv/versions/cemea-env/lib/python3.10/site-packages/gpaw_data/setups/Mo.LDA.gz
    compensation charges: {type: gauss,
                           rc: 0.38,
                           lmax: 2}
    cutoffs: {filter: 2.16,
              core: 1.42}
    projectors:
      #              energy  rcut
      - 4s(2.00)   -64.384   1.238
      - 5s(1.00)    -4.319   1.238
      - 4p(6.00)   -38.595   1.296
      - 5p(0.00)    -1.161   1.296
      - 4d(5.00)    -3.933   1.296
      -  d          23.278   1.296
  
    # LCAO basis set for Mo:
    #   Name: dzp
    #   File: /home/mikei/.pyenv/versions/cemea-env/lib/python3.10/site-packages/gpaw_data/setups/Mo.dzp.basis.gz
    #   Number of radial functions: 11
    #   Number of spherical harmonics: 29
    #     l=0, rc=3.5469 Bohr: 4s-sz confined orbital
    #     l=0, rc=10.0469 Bohr: 5s-sz confined orbital
    #     l=1, rc=4.0781 Bohr: 4p-sz confined orbital
    #     l=1, rc=14.0938 Bohr: 5p-sz confined orbital
    #     l=2, rc=7.2031 Bohr: 4d-sz confined orbital
    #     l=0, rc=2.1250 Bohr: 4s-dz split-valence wave
    #     l=0, rc=6.1250 Bohr: 5s-dz split-valence wave
    #     l=1, rc=2.5469 Bohr: 4p-dz split-valence wave
    #     l=1, rc=8.7656 Bohr: 5p-dz split-valence wave
    #     l=2, rc=4.2344 Bohr: 4d-dz split-valence wave
    #     l=1, rc=10.0469 Bohr: p-type Gaussian polarization
    #   Number of RI-basis functions 0

  C:
    name: Carbon
    id: d60576a1f549371a163e72552ca58787
    Z: 6.0
    valence: 4
    core: 2
    charge: 0.0
    file: /home/mikei/.pyenv/versions/cemea-env/lib/python3.10/site-packages/gpaw_data/setups/C.LDA.gz
    compensation charges: {type: gauss,
                           rc: 0.20,
                           lmax: 2}
    cutoffs: {filter: 1.14,
              core: 1.14}
    projectors:
      #              energy  rcut
      - 2s(2.00)   -13.639   0.635
      - 2p(2.00)    -5.414   0.635
      -  s          13.573   0.635
      -  p          21.797   0.635
      -  d           0.000   0.635
  
    # LCAO basis set for C:
    #   Name: dzp
    #   File: /home/mikei/.pyenv/versions/cemea-env/lib/python3.10/site-packages/gpaw_data/setups/C.dzp.basis.gz
    #   Number of radial functions: 5
    #   Number of spherical harmonics: 13
    #     l=0, rc=5.5469 Bohr: 2s-sz confined orbital
    #     l=1, rc=6.6719 Bohr: 2p-sz confined orbital
    #     l=0, rc=3.0312 Bohr: 2s-dz split-valence wave
    #     l=1, rc=3.7500 Bohr: 2p-dz split-valence wave
    #     l=2, rc=6.6719 Bohr: d-type Gaussian polarization
    #   Number of RI-basis functions 0

Reference energy: -2652701.143356  # eV

Spin-paired calculation

Convergence criteria:
 Maximum [total energy] change in last 3 cyles: 1e-05 eV / valence electron
 Maximum integral of absolute [dens]ity change: 0.0001 electrons / valence electron
 Maximum integral of absolute [eigenst]ate change: 1e-05 eV^2 / valence electron
 Maximum number of scf [iter]ations: 333
 (Square brackets indicate name in SCF output, whereas a 'c' in
 the SCF output indicates the quantity has converged.)

Symmetries present (total): 2

  ( 1  0  0)  ( 1  0  0)
  ( 0  1  0)  ( 0 -1  0)
  ( 0  0  1)  ( 0  0  1)

16 k-points: 4 x 4 x 1 Monkhorst-Pack grid
4 k-points in the irreducible part of the Brillouin zone
       k-points in crystal coordinates                weights
   0:     0.12500000    0.12500000    0.00000000          4/16
   1:     0.12500000    0.37500000    0.00000000          4/16
   2:     0.37500000    0.12500000    0.00000000          4/16
   3:     0.37500000    0.37500000    0.00000000          4/16

Wave functions: LCAO
  Diagonalizer: Serial LAPACK
  Atomic Correction: dense with blas
  Data-type: complex
 

Occupation numbers: Fermi-Dirac:
  width: 0.1000  # eV
 

Eigensolver
   LCAO using direct dense diagonalizer 

Densities:
  Coarse grid: 192*40*92 grid
  Fine grid: 384*80*184 grid
  Total Charge: 0.000000 

Density mixing:
  Method: separate
  Backend: pulay
  Linear mixing parameter: 0.05
  old densities: 5
  Damping of long wavelength oscillations: 50 

Hamiltonian:
  XC and Coulomb potentials evaluated on a 384*80*184 grid
  Using the LDA Exchange-Correlation functional
  Interpolation: tri-quintic (5. degree polynomial)
  Poisson solver: FastPoissonSolver using
    Stencil: 6*3+1=19 point O(h^6) finite-difference Laplacian
    FFT axes: [np.int64(0), np.int64(1), np.int64(2)]
    FST axes: []
 

Memory estimate:
  Process memory now: 4595.48 MiB
  Calculator: 782.11 MiB
    Density: 319.59 MiB
      Arrays: 140.16 MiB
      Localized functions: 125.53 MiB
      Mixer: 53.91 MiB
    Hamiltonian: 99.77 MiB
      Arrays: 91.64 MiB
      XC: 0.00 MiB
      Poisson: 0.00 MiB
      vbar: 8.13 MiB
    Wavefunctions: 362.75 MiB
      C [qnM]: 12.22 MiB
      S, T [2 x qmm]: 88.61 MiB
      P [aqMi]: 1.91 MiB
      BasisFunctions: 260.01 MiB
      Eigensolver: 0.00 MiB

Total number of cores used: 1

Number of atoms: 36
Number of atomic orbitals: 852
Number of bands in calculation: 235
Number of valence electrons: 384
Bands to converge: occupied

... initialized

Initializing position-dependent things.

Density initialized from atomic densities
      .----------------------------------------------------------------------------------------------.  
     /|                                                                                              |  
    / |                                                                                              |  
   /  |                                                                                              |  
  /   |                                                                                              |  
 *    |                                                                                              |  
 |    |                                                                                              |  
 |    |                                                                                              |  
 |    |                                                                                              |  
 |    |                                                                                              |  
 |    |                                                                                              |  
 |    |                      Mo         Mo        Mo        Mo        Mo        Mo                   |  
 |    |                                                                                              |  
 |    |                    Mo        Mo        Mo        Mo        Mo         Mo                     |  
 |    |                      C          C         C         C         C         C                    |  
 |    |                Mo        Mo        Mo         Mo        Mo        Mo                         |  
 |    |                    C         C         C         C         C          C                      |  
 |    |              Mo        Mo        Mo        Mo        Mo        Mo                            |  
 |    |                                                                                              |  
 |    |                                                                                              |  
 |    |                                                                                              |  
 |    |                                                                                              |  
 |    .----------------------------------------------------------------------------------------------.  
 |   /                                                                                              /   
 |  /                                                                                              /    
 | /                                                                                              /     
 |/                                                                                              /      
 *----------------------------------------------------------------------------------------------*       

Atomic positions and initial magnetic moments

Positions:
   0 Mo     8.000000    0.000000    8.000000    ( 0.0000,  0.0000,  0.0000)
   1 Mo    10.060000    2.060000   10.060000    ( 0.0000,  0.0000,  0.0000)
   2 C     10.060000    2.060000    8.000000    ( 0.0000,  0.0000,  0.0000)
   3 Mo     8.000000    4.120000    8.000000    ( 0.0000,  0.0000,  0.0000)
   4 Mo    10.060000    6.180000   10.060000    ( 0.0000,  0.0000,  0.0000)
   5 C     10.060000    6.180000    8.000000    ( 0.0000,  0.0000,  0.0000)
   6 Mo    12.120000    0.000000    8.000000    ( 0.0000,  0.0000,  0.0000)
   7 Mo    14.180000    2.060000   10.060000    ( 0.0000,  0.0000,  0.0000)
   8 C     14.180000    2.060000    8.000000    ( 0.0000,  0.0000,  0.0000)
   9 Mo    12.120000    4.120000    8.000000    ( 0.0000,  0.0000,  0.0000)
  10 Mo    14.180000    6.180000   10.060000    ( 0.0000,  0.0000,  0.0000)
  11 C     14.180000    6.180000    8.000000    ( 0.0000,  0.0000,  0.0000)
  12 Mo    16.240000    0.000000    8.000000    ( 0.0000,  0.0000,  0.0000)
  13 Mo    18.300000    2.060000   10.060000    ( 0.0000,  0.0000,  0.0000)
  14 C     18.300000    2.060000    8.000000    ( 0.0000,  0.0000,  0.0000)
  15 Mo    16.240000    4.120000    8.000000    ( 0.0000,  0.0000,  0.0000)
  16 Mo    18.300000    6.180000   10.060000    ( 0.0000,  0.0000,  0.0000)
  17 C     18.300000    6.180000    8.000000    ( 0.0000,  0.0000,  0.0000)
  18 Mo    20.360000    0.000000    8.000000    ( 0.0000,  0.0000,  0.0000)
  19 Mo    22.420000    2.060000   10.060000    ( 0.0000,  0.0000,  0.0000)
  20 C     22.420000    2.060000    8.000000    ( 0.0000,  0.0000,  0.0000)
  21 Mo    20.360000    4.120000    8.000000    ( 0.0000,  0.0000,  0.0000)
  22 Mo    22.420000    6.180000   10.060000    ( 0.0000,  0.0000,  0.0000)
  23 C     22.420000    6.180000    8.000000    ( 0.0000,  0.0000,  0.0000)
  24 Mo    24.480000    0.000000    8.000000    ( 0.0000,  0.0000,  0.0000)
  25 Mo    26.540000    2.060000   10.060000    ( 0.0000,  0.0000,  0.0000)
  26 C     26.540000    2.060000    8.000000    ( 0.0000,  0.0000,  0.0000)
  27 Mo    24.480000    4.120000    8.000000    ( 0.0000,  0.0000,  0.0000)
  28 Mo    26.540000    6.180000   10.060000    ( 0.0000,  0.0000,  0.0000)
  29 C     26.540000    6.180000    8.000000    ( 0.0000,  0.0000,  0.0000)
  30 Mo    28.600000    0.000000    8.000000    ( 0.0000,  0.0000,  0.0000)
  31 Mo    30.660000    2.060000   10.060000    ( 0.0000,  0.0000,  0.0000)
  32 C     30.660000    2.060000    8.000000    ( 0.0000,  0.0000,  0.0000)
  33 Mo    28.600000    4.120000    8.000000    ( 0.0000,  0.0000,  0.0000)
  34 Mo    30.660000    6.180000   10.060000    ( 0.0000,  0.0000,  0.0000)
  35 C     30.660000    6.180000    8.000000    ( 0.0000,  0.0000,  0.0000)

Unit cell:
           periodic     x           y           z      points  spacing
  1. axis:    yes   38.660000    0.000000    0.000000   192     0.2014
  2. axis:    yes    0.000000    8.240000    0.000000    40     0.2060
  3. axis:    yes    0.000000    0.000000   18.060000    92     0.1963

  Lengths:  38.660000   8.240000  18.060000
  Angles:   90.000000  90.000000  90.000000

Effective grid spacing dv^(1/3) = 0.2012

     iter     time        total  log10-change:
                         energy   eigst   dens
iter:   1 02:29:56  -280.472249        c
iter:   2 02:30:16  -315.698790        c -0.86
iter:   3 02:30:32  -348.953937        c -0.76
iter:   4 02:30:52  -261.800233        c -0.70
iter:   5 02:31:08  -256.373811        c -0.91
iter:   6 02:31:21  -242.044809        c -0.95
iter:   7 02:31:42  -241.884759        c -1.10
iter:   8 02:31:55  -237.187846        c -1.10
iter:   9 02:32:09  -236.913852        c -1.18
iter:  10 02:32:26  -236.526464        c -1.16
iter:  11 02:32:41  -238.094107        c -1.13
iter:  12 02:32:56  -237.257468        c -1.13
iter:  13 02:33:09  -231.591346        c -1.17
iter:  14 02:33:26  -230.193188        c -1.32
iter:  15 02:33:41  -230.674589        c -1.44
iter:  16 02:33:57  -229.862946        c -1.38
iter:  17 02:34:16  -230.538445        c -1.45
iter:  18 02:34:29  -231.487955        c -1.39
iter:  19 02:34:50  -230.252848        c -1.32
iter:  20 02:35:07  -229.178674        c -1.39
iter:  21 02:35:28  -230.682285        c -1.54
iter:  22 02:35:42  -228.864507        c -1.38
iter:  23 02:35:58  -229.145921        c -1.62
iter:  24 02:36:11  -229.409374        c -1.58
iter:  25 02:36:24  -229.527655        c -1.50
iter:  26 02:36:40  -228.797721        c -1.50
iter:  27 02:36:58  -230.100888        c -1.64
iter:  28 02:37:11  -228.712088        c -1.45
iter:  29 02:37:29  -228.723343        c -1.66
iter:  30 02:37:42  -228.888030        c -1.63
iter:  31 02:37:59  -228.483352        c -1.63
iter:  32 02:38:16  -228.375164        c -1.73
iter:  33 02:38:33  -229.015114        c -1.79
iter:  34 02:38:52  -228.607825        c -1.61
iter:  35 02:39:07  -228.819266        c -1.70
iter:  36 02:39:27  -229.293040        c -1.63
iter:  37 02:39:44  -228.541124        c -1.51
iter:  38 02:40:05  -228.332149        c -1.74
iter:  39 02:40:25  -228.313032        c -1.84
iter:  40 02:40:40  -228.362824        c -1.84
iter:  41 02:40:56  -228.657377        c -1.83
iter:  42 02:41:11  -229.074028        c -1.68
iter:  43 02:41:24  -228.506419        c -1.61
iter:  44 02:41:40  -228.220444        c -1.72
iter:  45 02:41:58  -228.223095        c -1.90
iter:  46 02:42:12  -228.230661        c -1.95
iter:  47 02:42:29  -228.256245        c -1.92
iter:  48 02:42:43  -228.207520        c -1.91
iter:  49 02:42:58  -228.313151        c -1.92
iter:  50 02:43:14  -228.249236        c -1.87
iter:  51 02:43:31  -228.342349        c -1.92
iter:  52 02:43:48  -228.186796        c -1.87
iter:  53 02:44:05  -228.193312        c -1.98
iter:  54 02:44:18  -228.145974        c -1.96
iter:  55 02:44:36  -228.125639        c -2.08
iter:  56 02:44:54  -228.135853        c -2.09
iter:  57 02:45:12  -228.234302        c -2.06
iter:  58 02:45:28  -228.268228        c -1.93
iter:  59 02:45:46  -228.403303        c -1.94
iter:  60 02:46:04  -228.111296        c -1.88
iter:  61 02:46:20  -228.109148        c -2.16
iter:  62 02:46:35  -228.120752        c -2.20
iter:  63 02:46:53  -228.171030        c -2.16
iter:  64 02:47:06  -228.177303        c -2.07
iter:  65 02:47:21  -228.349330        c -2.05
iter:  66 02:47:37  -228.128823        c -1.84
iter:  67 02:47:52  -228.103407        c -2.17
iter:  68 02:48:08  -228.096156        c -2.24
iter:  69 02:48:24  -228.081109        c -2.28
iter:  70 02:48:37  -228.130521        c -2.32
iter:  71 02:48:55  -228.240283        c -2.16
iter:  72 02:49:12  -228.115235        c -2.04
iter:  73 02:49:28  -228.091551        c -2.18
iter:  74 02:49:48  -228.097442        c -2.23
iter:  75 02:50:08  -228.081741        c -2.23
iter:  76 02:50:24  -228.073520        c -2.36
iter:  77 02:50:39  -228.072450        c -2.42
iter:  78 02:50:54  -228.094168        c -2.33
iter:  79 02:51:10  -228.118661        c -2.33
iter:  80 02:51:26  -228.145638        c -2.23
iter:  81 02:51:44  -228.070085        c -2.17
iter:  82 02:51:58  -228.068184        c -2.47
iter:  83 02:52:18  -228.076715        c -2.49
iter:  84 02:52:36  -228.074656        c -2.50
iter:  85 02:52:53  -228.069517        c -2.43
iter:  86 02:53:08  -228.085144        c -2.44
iter:  87 02:53:25  -228.072710        c -2.28
iter:  88 02:53:40  -228.099513        c -2.50
iter:  89 02:53:53  -228.066018        c -2.34
iter:  90 02:54:08  -228.070589        c -2.58
iter:  91 02:54:22  -228.074409        c -2.56
iter:  92 02:54:35  -228.084806        c -2.52
iter:  93 02:54:49  -228.067426        c -2.47
iter:  94 02:55:02  -228.075887        c -2.60
iter:  95 02:55:20  -228.069829        c -2.32
iter:  96 02:55:33  -228.071446        c -2.60
iter:  97 02:55:48  -228.065437        c -2.52
iter:  98 02:56:05  -228.061878        c -2.67
iter:  99 02:56:20  -228.065339c       c -2.68
iter: 100 02:56:38  -228.101310        c -2.69
iter: 101 02:56:53  -228.067567        c -2.37
iter: 102 02:57:09  -228.068026        c -2.64
iter: 103 02:57:27  -228.062865        c -2.61
iter: 104 02:57:44  -228.065516        c -2.66
iter: 105 02:58:02  -228.063829c       c -2.75
iter: 106 02:58:19  -228.058371        c -2.76
iter: 107 02:58:35  -228.062988        c -2.65
iter: 108 02:58:51  -228.066027        c -2.75
iter: 109 02:59:04  -228.081235        c -2.63
iter: 110 02:59:20  -228.062049        c -2.52
iter: 111 02:59:40  -228.062042        c -2.80
iter: 112 02:59:58  -228.067704        c -2.83
iter: 113 03:00:15  -228.064068        c -2.78
iter: 114 03:00:30  -228.064086c       c -2.83
iter: 115 03:00:47  -228.061247c       c -2.83
iter: 116 03:01:05  -228.064017c       c -2.55
iter: 117 03:01:19  -228.064457c       c -2.84
iter: 118 03:01:36  -228.060812c       c -2.79
iter: 119 03:01:51  -228.060567        c -2.88
iter: 120 03:02:04  -228.060673c       c -2.95
iter: 121 03:02:19  -228.076796        c -2.90
iter: 122 03:02:34  -228.061342        c -2.64
iter: 123 03:02:52  -228.062405        c -2.92
iter: 124 03:03:10  -228.061553c       c -2.81
iter: 125 03:03:23  -228.063341c       c -2.90
iter: 126 03:03:36  -228.063584c       c -2.93
iter: 127 03:03:54  -228.057017        c -2.98
iter: 128 03:04:07  -228.062119        c -2.87
iter: 129 03:04:27  -228.063204        c -3.02
iter: 130 03:04:40  -228.064526c       c -2.84
iter: 131 03:04:59  -228.059689        c -2.90
iter: 132 03:05:17  -228.058626        c -3.00
iter: 133 03:05:34  -228.064323        c -3.05
iter: 134 03:05:55  -228.059786        c -3.00
iter: 135 03:06:11  -228.061882        c -3.10
iter: 136 03:06:28  -228.058661c       c -2.96
iter: 137 03:06:45  -228.061851c       c -3.06
iter: 138 03:07:03  -228.063013        c -3.07
iter: 139 03:07:20  -228.059457c       c -3.07
iter: 140 03:07:35  -228.061434c       c -3.14
iter: 141 03:07:50  -228.060040c       c -3.19
iter: 142 03:08:09  -228.062805c       c -3.04
iter: 143 03:08:27  -228.060284c       c -3.10
iter: 144 03:08:42  -228.058839        c -3.22
iter: 145 03:09:00  -228.060708c       c -3.23
iter: 146 03:09:18  -228.060149c       c -3.23
iter: 147 03:09:36  -228.063694c       c -3.20
iter: 148 03:09:50  -228.058576        c -3.02
iter: 149 03:10:03  -228.059750        c -3.27
iter: 150 03:10:24  -228.061292c       c -3.30
iter: 151 03:10:38  -228.060405c       c -3.25
iter: 152 03:10:51  -228.059972c       c -3.27
iter: 153 03:11:10  -228.057988c       c -3.23
iter: 154 03:11:25  -228.061392c       c -3.02
iter: 155 03:11:42  -228.060782c       c -3.30
iter: 156 03:11:59  -228.059555c       c -3.40
iter: 157 03:12:17  -228.059747c       c -3.37
iter: 158 03:12:33  -228.060887c       c -3.38
iter: 159 03:12:46  -228.063555c       c -3.23
iter: 160 03:13:04  -228.059450        c -3.11
iter: 161 03:13:18  -228.059335        c -3.42
iter: 162 03:13:38  -228.060209c       c -3.48
iter: 163 03:13:58  -228.060462c       c -3.42
iter: 164 03:14:13  -228.059785c       c -3.41
iter: 165 03:14:27  -228.058213c       c -3.36
iter: 166 03:14:40  -228.059991c       c -3.30
iter: 167 03:14:53  -228.060488c       c -3.52
iter: 168 03:15:07  -228.060113c       c -3.55
iter: 169 03:15:24  -228.059582c       c -3.53
iter: 170 03:15:41  -228.059909c       c -3.60
iter: 171 03:15:57  -228.060994c       c -3.43
iter: 172 03:16:12  -228.060100c       c -3.50
iter: 173 03:16:28  -228.059260c       c -3.54
iter: 174 03:16:41  -228.059429c       c -3.63
iter: 175 03:16:56  -228.060020c       c -3.57
iter: 176 03:17:09  -228.060251c       c -3.63
iter: 177 03:17:25  -228.059305c       c -3.56
iter: 178 03:17:42  -228.059526c       c -3.65
iter: 179 03:17:58  -228.060406c       c -3.64
iter: 180 03:18:14  -228.060443c       c -3.63
iter: 181 03:18:32  -228.059728c       c -3.58
iter: 182 03:18:47  -228.059317c       c -3.77
iter: 183 03:19:04  -228.060082c       c -3.63
iter: 184 03:19:20  -228.060228c       c -3.75
iter: 185 03:19:40  -228.059365c       c -3.62
iter: 186 03:19:56  -228.059263c       c -3.76
iter: 187 03:20:14  -228.059806c       c -3.69
iter: 188 03:20:32  -228.060539c       c -3.81
iter: 189 03:20:45  -228.059701c       c -3.63
iter: 190 03:21:01  -228.059455c       c -3.82
iter: 191 03:21:19  -228.059960c       c -3.76
iter: 192 03:21:40  -228.060139c       c -3.79
iter: 193 03:21:53  -228.059767c       c -3.78
iter: 194 03:22:07  -228.058954c       c -3.89
iter: 195 03:22:22  -228.059719c       c -3.64
iter: 196 03:22:35  -228.059963c       c -3.88
iter: 197 03:22:57  -228.059810c       c -3.82
iter: 198 03:23:19  -228.059576c       c -3.88
iter: 199 03:23:34  -228.059706c       c -3.95
iter: 200 03:23:53  -228.060611c       c -3.96
iter: 201 03:24:13  -228.059831c       c -3.70
iter: 202 03:24:28  -228.059661c       c -3.88
iter: 203 03:24:41  -228.059528c       c -3.95
iter: 204 03:24:57  -228.059758c       c -3.95
iter: 205 03:25:16  -228.059781c       c -4.05c

Converged after 205 iterations.

Dipole moment: (-0.900086, -16.659672, 1.942095) |e|*Ang

Energy contributions relative to reference atoms: (reference = -2652701.143356)

Kinetic:       -605.709005
Potential:     +412.394034
External:        +0.000000
XC:             -35.954698
Entropy (-ST):   -3.711785
Local:           +3.065780
SIC:             +0.000000
--------------------------
Free energy:   -229.915674
Extrapolated:  -228.059781

Showing only first 2 kpts
 Kpt  Band  Eigenvalues  Occupancy
  0   190     -2.82729    0.92181
  0   191     -2.78660    0.72541
  0   192     -2.77523    0.67371
  0   193     -2.75980    0.60658

  1   190     -2.87596    1.16349
  1   191     -2.86588    1.11406
  1   192     -2.81839    0.87774
  1   193     -2.81598    0.86588


Fermi level: -2.84296

No gap
No difference between direct/indirect transitions
Timing:                              incl.     excl.
-----------------------------------------------------------
Basic WFS set positions:             0.001     0.001   0.0% |
Basis functions set positions:       0.145     0.145   0.0% |
LCAO WFS Initialize:                 0.840     0.078   0.0% |
 Hamiltonian:                        0.762     0.000   0.0% |
  Atomic:                            0.124     0.001   0.0% |
   XC Correction:                    0.123     0.123   0.0% |
  Calculate atomic Hamiltonians:     0.016     0.016   0.0% |
  Communicate:                       0.000     0.000   0.0% |
  Hartree integrate/restrict:        0.041     0.041   0.0% |
  Initialize Hamiltonian:            0.003     0.003   0.0% |
  Poisson:                           0.418     0.025   0.0% |
   Communicate from 1D:              0.045     0.045   0.0% |
   Communicate from 2D:              0.045     0.045   0.0% |
   Communicate to 1D:                0.029     0.029   0.0% |
   Communicate to 2D:                0.044     0.044   0.0% |
   FFT 1D:                           0.062     0.062   0.0% |
   FFT 2D:                           0.168     0.168   0.0% |
  XC 3D grid:                        0.156     0.156   0.0% |
  vbar:                              0.004     0.004   0.0% |
P tci:                               0.530     0.530   0.0% |
SCF-cycle:                        3324.597     0.176   0.0% |
 Density:                         1729.948     0.003   0.0% |
  Atomic density matrices:           0.905     0.905   0.0% |
  Mix:                              32.344    32.344   1.0% |
  Multipole moments:                 0.042     0.042   0.0% |
  Normalize:                         0.044     0.044   0.0% |
  Pseudo density:                 1696.610     0.196   0.0% |
   Calculate density matrix:         7.002     7.002   0.2% |
   Construct density:             1686.205  1686.205  50.7% |-------------------|
   Symmetrize density:               3.206     3.206   0.1% |
 Hamiltonian:                      156.705     0.010   0.0% |
  Atomic:                           25.451     0.264   0.0% |
   XC Correction:                   25.188    25.188   0.8% |
  Calculate atomic Hamiltonians:     3.246     3.246   0.1% |
  Communicate:                       0.001     0.001   0.0% |
  Hartree integrate/restrict:        8.588     8.588   0.3% |
  Poisson:                          84.406     4.875   0.1% |
   Communicate from 1D:              9.106     9.106   0.3% |
   Communicate from 2D:              9.082     9.082   0.3% |
   Communicate to 1D:                6.227     6.227   0.2% |
   Communicate to 2D:                8.941     8.941   0.3% |
   FFT 1D:                          12.735    12.735   0.4% |
   FFT 2D:                          33.441    33.441   1.0% |
  XC 3D grid:                       32.567    32.567   1.0% |
  vbar:                              2.436     2.436   0.1% |
 LCAO eigensolver:                1437.768     1.005   0.0% |
  Calculate projections:            79.190    79.190   2.4% ||
  DenseAtomicCorrection:            90.625    90.625   2.7% ||
  Distribute overlap matrix:         1.353     1.353   0.0% |
  Orbital Layouts:                 794.922   794.922  23.9% |---------|
  Potential matrix:                463.254   463.254  13.9% |-----|
  Sum over cells:                    7.419     7.419   0.2% |
ST tci:                              0.262     0.262   0.0% |
Set symmetry:                        0.001     0.001   0.0% |
TCI: Evaluate splines:               0.124     0.124   0.0% |
mktci:                               0.004     0.004   0.0% |
Other:                               2.445     2.445   0.1% |
-----------------------------------------------------------
Total:                                      3328.948 100.0%

Memory usage: 4.49 GiB
Date: Sat Feb 21 03:25:16 2026
