
  ___ ___ ___ _ _ _  
 |   |   |_  | | | | 
 | | | | | . | | | | 
 |__ |  _|___|_____|  25.7.0
 |___|_|             

User:   mikei@Z790-AORUS-ELITE-AX
Date:   Sat Feb 21 03:25:16 2026
Arch:   x86_64
Pid:    89048
CWD:    /home/mikei/Dokumenty/code/cemea/ocx
Python: 3.10.16
gpaw:   /home/mikei/.pyenv/versions/cemea-env/lib/python3.10/site-packages/gpaw
_gpaw:  /home/mikei/.pyenv/versions/cemea-env/lib/python3.10/site-packages/
        _gpaw.cpython-310-x86_64-linux-gnu.so
ase:    /home/mikei/.pyenv/versions/cemea-env/lib/python3.10/site-packages/ase (version 3.27.0)
numpy:  /home/mikei/.pyenv/versions/cemea-env/lib/python3.10/site-packages/numpy (version 2.2.6)
scipy:  /home/mikei/.pyenv/versions/cemea-env/lib/python3.10/site-packages/scipy (version 1.15.3)
libxc:  2.x.y
units:  Angstrom and eV
cores: 1
OpenMP: False
OMP_NUM_THREADS: 1

Input parameters:
  basis: dzp
  convergence: {density: 0.0001,
                eigenstates: 1e-05,
                energy: 1e-05}
  kpts: [4 4 1]
  mode: lcao

System changes: positions, numbers, cell, pbc, initial_charges, initial_magmoms 

Initialize ...

species:
  Mo:
    name: Molybdenum
    id: ac24daaf086600a00ce6d19a74574df1
    Z: 42.0
    valence: 14
    core: 28
    charge: 0.0
    file: /home/mikei/.pyenv/versions/cemea-env/lib/python3.10/site-packages/gpaw_data/setups/Mo.LDA.gz
    compensation charges: {type: gauss,
                           rc: 0.38,
                           lmax: 2}
    cutoffs: {filter: 2.16,
              core: 1.42}
    projectors:
      #              energy  rcut
      - 4s(2.00)   -64.384   1.238
      - 5s(1.00)    -4.319   1.238
      - 4p(6.00)   -38.595   1.296
      - 5p(0.00)    -1.161   1.296
      - 4d(5.00)    -3.933   1.296
      -  d          23.278   1.296
  
    # LCAO basis set for Mo:
    #   Name: dzp
    #   File: /home/mikei/.pyenv/versions/cemea-env/lib/python3.10/site-packages/gpaw_data/setups/Mo.dzp.basis.gz
    #   Number of radial functions: 11
    #   Number of spherical harmonics: 29
    #     l=0, rc=3.5469 Bohr: 4s-sz confined orbital
    #     l=0, rc=10.0469 Bohr: 5s-sz confined orbital
    #     l=1, rc=4.0781 Bohr: 4p-sz confined orbital
    #     l=1, rc=14.0938 Bohr: 5p-sz confined orbital
    #     l=2, rc=7.2031 Bohr: 4d-sz confined orbital
    #     l=0, rc=2.1250 Bohr: 4s-dz split-valence wave
    #     l=0, rc=6.1250 Bohr: 5s-dz split-valence wave
    #     l=1, rc=2.5469 Bohr: 4p-dz split-valence wave
    #     l=1, rc=8.7656 Bohr: 5p-dz split-valence wave
    #     l=2, rc=4.2344 Bohr: 4d-dz split-valence wave
    #     l=1, rc=10.0469 Bohr: p-type Gaussian polarization
    #   Number of RI-basis functions 0

  C:
    name: Carbon
    id: d60576a1f549371a163e72552ca58787
    Z: 6.0
    valence: 4
    core: 2
    charge: 0.0
    file: /home/mikei/.pyenv/versions/cemea-env/lib/python3.10/site-packages/gpaw_data/setups/C.LDA.gz
    compensation charges: {type: gauss,
                           rc: 0.20,
                           lmax: 2}
    cutoffs: {filter: 1.14,
              core: 1.14}
    projectors:
      #              energy  rcut
      - 2s(2.00)   -13.639   0.635
      - 2p(2.00)    -5.414   0.635
      -  s          13.573   0.635
      -  p          21.797   0.635
      -  d           0.000   0.635
  
    # LCAO basis set for C:
    #   Name: dzp
    #   File: /home/mikei/.pyenv/versions/cemea-env/lib/python3.10/site-packages/gpaw_data/setups/C.dzp.basis.gz
    #   Number of radial functions: 5
    #   Number of spherical harmonics: 13
    #     l=0, rc=5.5469 Bohr: 2s-sz confined orbital
    #     l=1, rc=6.6719 Bohr: 2p-sz confined orbital
    #     l=0, rc=3.0312 Bohr: 2s-dz split-valence wave
    #     l=1, rc=3.7500 Bohr: 2p-dz split-valence wave
    #     l=2, rc=6.6719 Bohr: d-type Gaussian polarization
    #   Number of RI-basis functions 0

  H:
    name: Hydrogen
    id: 4766778ce56282eaa64abeb28b7c1de3
    Z: 1.0
    valence: 1
    core: 0
    charge: 0.0
    file: /home/mikei/.pyenv/versions/cemea-env/lib/python3.10/site-packages/gpaw_data/setups/H.LDA.gz
    compensation charges: {type: gauss,
                           rc: 0.15,
                           lmax: 2}
    cutoffs: {filter: 0.85,
              core: 0.53}
    projectors:
      #              energy  rcut
      - 1s(1.00)    -6.353   0.476
      -  s          20.858   0.476
      -  p           0.000   0.476
  
    # LCAO basis set for H:
    #   Name: dzp
    #   File: /home/mikei/.pyenv/versions/cemea-env/lib/python3.10/site-packages/gpaw_data/setups/H.dzp.basis.gz
    #   Number of radial functions: 3
    #   Number of spherical harmonics: 5
    #     l=0, rc=6.4219 Bohr: 1s-sz confined orbital
    #     l=0, rc=3.6094 Bohr: 1s-dz split-valence wave
    #     l=1, rc=6.4219 Bohr: p-type Gaussian polarization
    #   Number of RI-basis functions 0

Reference energy: -2652713.272315  # eV

Spin-paired calculation

Convergence criteria:
 Maximum [total energy] change in last 3 cyles: 1e-05 eV / valence electron
 Maximum integral of absolute [dens]ity change: 0.0001 electrons / valence electron
 Maximum integral of absolute [eigenst]ate change: 1e-05 eV^2 / valence electron
 Maximum number of scf [iter]ations: 333
 (Square brackets indicate name in SCF output, whereas a 'c' in
 the SCF output indicates the quantity has converged.)

Symmetries present (total): 1

  ( 1  0  0)
  ( 0  1  0)
  ( 0  0  1)

16 k-points: 4 x 4 x 1 Monkhorst-Pack grid
8 k-points in the irreducible part of the Brillouin zone
       k-points in crystal coordinates                weights
   0:     0.12500000   -0.37500000    0.00000000          2/16
   1:     0.12500000   -0.12500000    0.00000000          2/16
   2:     0.12500000    0.12500000    0.00000000          2/16
   3:     0.12500000    0.37500000    0.00000000          2/16
   4:     0.37500000   -0.37500000    0.00000000          2/16
   5:     0.37500000   -0.12500000    0.00000000          2/16
   6:     0.37500000    0.12500000    0.00000000          2/16
   7:     0.37500000    0.37500000    0.00000000          2/16

Wave functions: LCAO
  Diagonalizer: Serial LAPACK
  Atomic Correction: dense with blas
  Data-type: complex
 

Occupation numbers: Fermi-Dirac:
  width: 0.1000  # eV
 

Eigensolver
   LCAO using direct dense diagonalizer 

Densities:
  Coarse grid: 192*40*92 grid
  Fine grid: 384*80*184 grid
  Total Charge: 0.000000 

Density mixing:
  Method: separate
  Backend: pulay
  Linear mixing parameter: 0.05
  old densities: 5
  Damping of long wavelength oscillations: 50 

Hamiltonian:
  XC and Coulomb potentials evaluated on a 384*80*184 grid
  Using the LDA Exchange-Correlation functional
  Interpolation: tri-quintic (5. degree polynomial)
  Poisson solver: FastPoissonSolver using
    Stencil: 6*3+1=19 point O(h^6) finite-difference Laplacian
    FFT axes: [np.int64(0), np.int64(1), np.int64(2)]
    FST axes: []
 

Memory estimate:
  Process memory now: 4595.48 MiB
  Calculator: 888.04 MiB
    Density: 319.83 MiB
      Arrays: 140.16 MiB
      Localized functions: 125.77 MiB
      Mixer: 53.91 MiB
    Hamiltonian: 99.79 MiB
      Arrays: 91.64 MiB
      XC: 0.00 MiB
      Poisson: 0.00 MiB
      vbar: 8.15 MiB
    Wavefunctions: 468.42 MiB
      C [qnM]: 24.58 MiB
      S, T [2 x qmm]: 179.31 MiB
      P [aqMi]: 3.88 MiB
      BasisFunctions: 260.65 MiB
      Eigensolver: 0.00 MiB

Total number of cores used: 1

Number of atoms: 37
Number of atomic orbitals: 857
Number of bands in calculation: 235
Number of valence electrons: 385
Bands to converge: occupied

... initialized

Initializing position-dependent things.

Density initialized from atomic densities
      .----------------------------------------------------------------------------------------------.  
     /|                                                                                              |  
    / |                                                                                              |  
   /  |                                                                                              |  
  /   |                                                                                              |  
 *    |                                                                                              |  
 |    |                                                                                              |  
 |    |                                                                                              |  
 |    |                                                                                              |  
 |    |                                                                                              |  
 |    |                                                                                              |  
 |    |                      Mo         Mo        MH        Mo        Mo        Mo                   |  
 |    |                                                                                              |  
 |    |                    Mo        Mo        Mo        Mo        Mo         Mo                     |  
 |    |                      C          C         C         C         C         C                    |  
 |    |                Mo        Mo        Mo         Mo        Mo        Mo                         |  
 |    |                    C         C         C         C         C          C                      |  
 |    |              Mo        Mo        Mo        Mo        Mo        Mo                            |  
 |    |                                                                                              |  
 |    |                                                                                              |  
 |    |                                                                                              |  
 |    |                                                                                              |  
 |    .----------------------------------------------------------------------------------------------.  
 |   /                                                                                              /   
 |  /                                                                                              /    
 | /                                                                                              /     
 |/                                                                                              /      
 *----------------------------------------------------------------------------------------------*       

Atomic positions and initial magnetic moments

Positions:
   0 Mo     8.000000    0.000000    8.000000    ( 0.0000,  0.0000,  0.0000)
   1 Mo    10.060000    2.060000   10.060000    ( 0.0000,  0.0000,  0.0000)
   2 C     10.060000    2.060000    8.000000    ( 0.0000,  0.0000,  0.0000)
   3 Mo     8.000000    4.120000    8.000000    ( 0.0000,  0.0000,  0.0000)
   4 Mo    10.060000    6.180000   10.060000    ( 0.0000,  0.0000,  0.0000)
   5 C     10.060000    6.180000    8.000000    ( 0.0000,  0.0000,  0.0000)
   6 Mo    12.120000    0.000000    8.000000    ( 0.0000,  0.0000,  0.0000)
   7 Mo    14.180000    2.060000   10.060000    ( 0.0000,  0.0000,  0.0000)
   8 C     14.180000    2.060000    8.000000    ( 0.0000,  0.0000,  0.0000)
   9 Mo    12.120000    4.120000    8.000000    ( 0.0000,  0.0000,  0.0000)
  10 Mo    14.180000    6.180000   10.060000    ( 0.0000,  0.0000,  0.0000)
  11 C     14.180000    6.180000    8.000000    ( 0.0000,  0.0000,  0.0000)
  12 Mo    16.240000    0.000000    8.000000    ( 0.0000,  0.0000,  0.0000)
  13 Mo    18.300000    2.060000   10.060000    ( 0.0000,  0.0000,  0.0000)
  14 C     18.300000    2.060000    8.000000    ( 0.0000,  0.0000,  0.0000)
  15 Mo    16.240000    4.120000    8.000000    ( 0.0000,  0.0000,  0.0000)
  16 Mo    18.300000    6.180000   10.060000    ( 0.0000,  0.0000,  0.0000)
  17 C     18.300000    6.180000    8.000000    ( 0.0000,  0.0000,  0.0000)
  18 Mo    20.360000    0.000000    8.000000    ( 0.0000,  0.0000,  0.0000)
  19 Mo    22.420000    2.060000   10.060000    ( 0.0000,  0.0000,  0.0000)
  20 C     22.420000    2.060000    8.000000    ( 0.0000,  0.0000,  0.0000)
  21 Mo    20.360000    4.120000    8.000000    ( 0.0000,  0.0000,  0.0000)
  22 Mo    22.420000    6.180000   10.060000    ( 0.0000,  0.0000,  0.0000)
  23 C     22.420000    6.180000    8.000000    ( 0.0000,  0.0000,  0.0000)
  24 Mo    24.480000    0.000000    8.000000    ( 0.0000,  0.0000,  0.0000)
  25 Mo    26.540000    2.060000   10.060000    ( 0.0000,  0.0000,  0.0000)
  26 C     26.540000    2.060000    8.000000    ( 0.0000,  0.0000,  0.0000)
  27 Mo    24.480000    4.120000    8.000000    ( 0.0000,  0.0000,  0.0000)
  28 Mo    26.540000    6.180000   10.060000    ( 0.0000,  0.0000,  0.0000)
  29 C     26.540000    6.180000    8.000000    ( 0.0000,  0.0000,  0.0000)
  30 Mo    28.600000    0.000000    8.000000    ( 0.0000,  0.0000,  0.0000)
  31 Mo    30.660000    2.060000   10.060000    ( 0.0000,  0.0000,  0.0000)
  32 C     30.660000    2.060000    8.000000    ( 0.0000,  0.0000,  0.0000)
  33 Mo    28.600000    4.120000    8.000000    ( 0.0000,  0.0000,  0.0000)
  34 Mo    30.660000    6.180000   10.060000    ( 0.0000,  0.0000,  0.0000)
  35 C     30.660000    6.180000    8.000000    ( 0.0000,  0.0000,  0.0000)
  36 H     19.673333    3.433333   11.560000    ( 0.0000,  0.0000,  0.0000)

Unit cell:
           periodic     x           y           z      points  spacing
  1. axis:    yes   38.660000    0.000000    0.000000   192     0.2014
  2. axis:    yes    0.000000    8.240000    0.000000    40     0.2060
  3. axis:    yes    0.000000    0.000000   18.060000    92     0.1963

  Lengths:  38.660000   8.240000  18.060000
  Angles:   90.000000  90.000000  90.000000

Effective grid spacing dv^(1/3) = 0.2012

     iter     time        total  log10-change:
                         energy   eigst   dens
iter:   1 03:25:38  -284.439485        c
iter:   2 03:26:13  -320.697741        c -0.85
iter:   3 03:26:39  -354.984681        c -0.76
iter:   4 03:27:07  -262.086241        c -0.69
iter:   5 03:27:35  -258.233596        c -0.93
iter:   6 03:28:13  -245.732810        c -0.95
iter:   7 03:28:43  -244.817904        c -1.09
iter:   8 03:29:10  -240.097346        c -1.10
iter:   9 03:29:36  -238.257324        c -1.17
iter:  10 03:30:07  -241.474077        c -1.20
iter:  11 03:30:36  -239.735873        c -1.09
iter:  12 03:31:11  -239.246903        c -1.17
iter:  13 03:31:34  -235.342955        c -1.19
iter:  14 03:32:05  -233.328264        c -1.27
iter:  15 03:32:39  -233.372591        c -1.41
iter:  16 03:33:05  -233.209067        c -1.41
iter:  17 03:33:37  -233.889700        c -1.41
iter:  18 03:34:06  -233.844962        c -1.36
iter:  19 03:34:36  -233.935636        c -1.36
iter:  20 03:35:02  -232.126367        c -1.33
iter:  21 03:35:31  -234.362933        c -1.54
iter:  22 03:36:00  -231.849542        c -1.32
iter:  23 03:36:29  -232.471812        c -1.58
iter:  24 03:36:57  -231.994425        c -1.52
iter:  25 03:37:27  -231.876138        c -1.54
iter:  26 03:37:56  -231.546864        c -1.58
iter:  27 03:38:27  -232.183033        c -1.66
iter:  28 03:38:52  -231.681658        c -1.52
iter:  29 03:39:26  -232.332182        c -1.62
iter:  30 03:39:53  -232.626291        c -1.50
iter:  31 03:40:18  -231.386426        c -1.51
iter:  32 03:40:42  -231.267376        c -1.72
iter:  33 03:41:17  -231.475313        c -1.79
iter:  34 03:41:43  -231.332864        c -1.69
iter:  35 03:42:07  -231.880334        c -1.74
iter:  36 03:42:35  -233.334814        c -1.59
iter:  37 03:43:05  -232.024441        c -1.40
iter:  38 03:43:32  -231.345865        c -1.58
iter:  39 03:44:00  -231.223043        c -1.75
iter:  40 03:44:32  -231.235141        c -1.83
iter:  41 03:45:03  -231.248104        c -1.82
iter:  42 03:45:28  -231.831619        c -1.80
iter:  43 03:45:53  -233.028205        c -1.66
iter:  44 03:46:18  -231.214936        c -1.43
iter:  45 03:46:47  -231.180089        c -1.83
iter:  46 03:47:14  -231.185925        c -1.87
iter:  47 03:47:37  -231.032089        c -1.86
iter:  48 03:48:06  -231.014026        c -2.05
iter:  49 03:48:37  -231.416858        c -2.05
iter:  50 03:49:08  -231.102691        c -1.78
iter:  51 03:49:37  -231.260204        c -1.98
iter:  52 03:50:07  -231.696710        c -1.84
iter:  53 03:50:36  -231.142999        c -1.66
iter:  54 03:51:09  -231.029223        c -1.88
iter:  55 03:51:34  -230.990242        c -2.07
iter:  56 03:51:59  -230.987682        c -2.14
iter:  57 03:52:32  -231.028585        c -2.16
iter:  58 03:52:59  -231.387205        c -2.08
iter:  59 03:53:27  -231.754973        c -1.80
iter:  60 03:53:57  -231.064437        c -1.69
iter:  61 03:54:23  -230.985639        c -1.99
iter:  62 03:54:58  -230.958692        c -2.23
iter:  63 03:55:30  -230.955384        c -2.34
iter:  64 03:56:01  -230.994562        c -2.38
iter:  65 03:56:29  -231.212809        c -2.15
iter:  66 03:57:04  -231.074694        c -1.86
iter:  67 03:57:33  -230.987619        c -2.12
iter:  68 03:57:58  -230.993930        c -2.27
iter:  69 03:58:26  -230.956027        c -2.25
iter:  70 03:58:55  -230.969439        c -2.45
iter:  71 03:59:25  -230.997775        c -2.40
iter:  72 03:59:57  -231.002115        c -2.32
iter:  73 04:00:22  -230.951558        c -2.11
iter:  74 04:00:54  -230.982849        c -2.46
iter:  75 04:01:26  -230.990076        c -2.29
iter:  76 04:01:52  -230.941875        c -2.29
iter:  77 04:02:24  -230.940492        c -2.64
iter:  78 04:02:53  -230.991131        c -2.60
iter:  79 04:03:16  -230.952499        c -2.37
iter:  80 04:03:46  -230.950141        c -2.56
iter:  81 04:04:11  -230.968744        c -2.63
iter:  82 04:04:46  -230.948883        c -2.30
iter:  83 04:05:15  -230.948462        c -2.61
iter:  84 04:05:44  -230.940478        c -2.71
iter:  85 04:06:14  -230.943435        c -2.60
iter:  86 04:06:44  -230.939953c       c -2.80
iter:  87 04:07:12  -230.952315        c -2.78
iter:  88 04:07:47  -230.946500        c -2.63
iter:  89 04:08:17  -230.939556        c -2.68
iter:  90 04:08:43  -230.955694        c -2.75
iter:  91 04:09:08  -230.940611        c -2.67
iter:  92 04:09:43  -230.945357        c -2.86
iter:  93 04:10:11  -230.938450        c -2.80
iter:  94 04:10:38  -230.940132        c -2.87
iter:  95 04:11:06  -230.944643        c -2.80
iter:  96 04:11:38  -230.940190        c -2.86
iter:  97 04:12:13  -230.943768        c -2.78
iter:  98 04:12:43  -230.938509        c -2.83
iter:  99 04:13:11  -230.944882        c -2.91
iter: 100 04:13:44  -230.946924        c -2.86
iter: 101 04:14:10  -230.939244        c -2.84
iter: 102 04:14:35  -230.942041        c -3.02
iter: 103 04:15:00  -230.942437c       c -3.04
iter: 104 04:15:28  -230.942341c       c -2.82
iter: 105 04:15:56  -230.939164c       c -3.00
iter: 106 04:16:23  -230.937886        c -2.96
iter: 107 04:16:50  -230.942398        c -2.77
iter: 108 04:17:18  -230.940188        c -3.01
iter: 109 04:17:44  -230.941551c       c -3.11
iter: 110 04:18:15  -230.940706c       c -2.96
iter: 111 04:18:50  -230.941035c       c -3.06
iter: 112 04:19:21  -230.954865        c -3.08
iter: 113 04:19:51  -230.937895        c -2.68
iter: 114 04:20:21  -230.940180        c -3.06
iter: 115 04:20:51  -230.940512c       c -3.22
iter: 116 04:21:15  -230.939948c       c -3.12
iter: 117 04:21:39  -230.940090c       c -3.20
iter: 118 04:22:09  -230.936822c       c -3.22
iter: 119 04:22:35  -230.941838        c -2.81
iter: 120 04:23:08  -230.940734        c -3.16
iter: 121 04:23:40  -230.939854c       c -3.27
iter: 122 04:24:10  -230.940239c       c -3.26
iter: 123 04:24:39  -230.940244c       c -3.25
iter: 124 04:25:08  -230.944271        c -3.34
iter: 125 04:25:41  -230.938664        c -3.06
iter: 126 04:26:06  -230.938454        c -3.21
iter: 127 04:26:36  -230.940346c       c -3.21
iter: 128 04:27:01  -230.939730c       c -3.22
iter: 129 04:27:30  -230.939402c       c -3.38
iter: 130 04:28:01  -230.938231c       c -3.44
iter: 131 04:28:27  -230.940615c       c -3.30
iter: 132 04:28:55  -230.942895        c -3.32
iter: 133 04:29:19  -230.939643c       c -3.10
iter: 134 04:29:47  -230.939403c       c -3.31
iter: 135 04:30:17  -230.939939c       c -3.30
iter: 136 04:30:41  -230.940461c       c -3.46
iter: 137 04:31:07  -230.939767c       c -3.46
iter: 138 04:31:36  -230.937889c       c -3.44
iter: 139 04:32:05  -230.939866c       c -3.19
iter: 140 04:32:32  -230.941193c       c -3.41
iter: 141 04:33:00  -230.939369c       c -3.32
iter: 142 04:33:26  -230.939014c       c -3.54
iter: 143 04:33:58  -230.939209c       c -3.57
iter: 144 04:34:25  -230.940792c       c -3.59
iter: 145 04:34:48  -230.939687c       c -3.42
iter: 146 04:35:16  -230.938697c       c -3.62
iter: 147 04:35:48  -230.940101c       c -3.43
iter: 148 04:36:18  -230.940223c       c -3.54
iter: 149 04:36:49  -230.940267c       c -3.58
iter: 150 04:37:17  -230.938993c       c -3.54
iter: 151 04:37:43  -230.939475c       c -3.66
iter: 152 04:38:09  -230.940180c       c -3.75
iter: 153 04:38:33  -230.939206c       c -3.66
iter: 154 04:39:05  -230.939236c       c -3.70
iter: 155 04:39:34  -230.938914c       c -3.60
iter: 156 04:40:01  -230.940087c       c -3.56
iter: 157 04:40:26  -230.939738c       c -3.63
iter: 158 04:40:54  -230.939281c       c -3.80
iter: 159 04:41:25  -230.939728c       c -3.81
iter: 160 04:41:56  -230.939803c       c -3.80
iter: 161 04:42:31  -230.940246c       c -3.75
iter: 162 04:43:05  -230.939311c       c -3.56
iter: 163 04:43:36  -230.939111c       c -3.71
iter: 164 04:44:09  -230.939795c       c -3.74
iter: 165 04:44:40  -230.939481c       c -3.84
iter: 166 04:45:10  -230.939365c       c -3.87
iter: 167 04:45:33  -230.939071c       c -3.80
iter: 168 04:46:04  -230.939479c       c -3.71
iter: 169 04:46:29  -230.940427c       c -3.83
iter: 170 04:46:57  -230.939143c       c -3.57
iter: 171 04:47:28  -230.939429c       c -3.84
iter: 172 04:48:02  -230.939661c       c -3.97
iter: 173 04:48:28  -230.939780c       c -3.91
iter: 174 04:48:57  -230.939647c       c -3.84
iter: 175 04:49:30  -230.938607c       c -3.95
iter: 176 04:49:58  -230.939714c       c -3.56
iter: 177 04:50:33  -230.939610c       c -3.93
iter: 178 04:51:08  -230.939329c       c -3.99
iter: 179 04:51:37  -230.939320c       c -3.96
iter: 180 04:52:02  -230.939372c       c -4.05c

Converged after 180 iterations.

Dipole moment: (-0.900179, -16.566659, 1.700458) |e|*Ang

Energy contributions relative to reference atoms: (reference = -2652713.272315)

Kinetic:       -608.770555
Potential:     +413.677935
External:        +0.000000
XC:             -37.040310
Entropy (-ST):   -3.688203
Local:           +3.037659
SIC:             +0.000000
--------------------------
Free energy:   -232.783474
Extrapolated:  -230.939372

Showing only first 2 kpts
 Kpt  Band  Eigenvalues  Occupancy
  0   190     -2.91251    1.16455
  0   191     -2.90827    1.14388
  0   192     -2.89723    1.08943
  0   193     -2.85190    0.86388

  1   190     -2.86714    0.93929
  1   191     -2.85172    0.86298
  1   192     -2.81140    0.67301
  1   193     -2.80693    0.65318


Fermi level: -2.87930

No gap
No difference between direct/indirect transitions
Timing:                              incl.     excl.
-----------------------------------------------------------
Basic WFS set positions:             0.000     0.000   0.0% |
Basis functions set positions:       0.147     0.147   0.0% |
LCAO WFS Initialize:                 0.844     0.077   0.0% |
 Hamiltonian:                        0.767     0.000   0.0% |
  Atomic:                            0.125     0.001   0.0% |
   XC Correction:                    0.124     0.124   0.0% |
  Calculate atomic Hamiltonians:     0.016     0.016   0.0% |
  Communicate:                       0.000     0.000   0.0% |
  Hartree integrate/restrict:        0.042     0.042   0.0% |
  Initialize Hamiltonian:            0.003     0.003   0.0% |
  Poisson:                           0.420     0.025   0.0% |
   Communicate from 1D:              0.045     0.045   0.0% |
   Communicate from 2D:              0.045     0.045   0.0% |
   Communicate to 1D:                0.029     0.029   0.0% |
   Communicate to 2D:                0.044     0.044   0.0% |
   FFT 1D:                           0.062     0.062   0.0% |
   FFT 2D:                           0.170     0.170   0.0% |
  XC 3D grid:                        0.155     0.155   0.0% |
  vbar:                              0.006     0.006   0.0% |
P tci:                               1.045     1.045   0.0% |
SCF-cycle:                        5200.636     0.242   0.0% |
 Density:                         3015.102     0.003   0.0% |
  Atomic density matrices:           1.434     1.434   0.0% |
  Mix:                              28.404    28.404   0.5% |
  Multipole moments:                 0.037     0.037   0.0% |
  Normalize:                         0.098     0.098   0.0% |
  Pseudo density:                 2985.125     0.212   0.0% |
   Calculate density matrix:        10.827    10.827   0.2% |
   Construct density:             2974.083  2974.083  57.1% |----------------------|
   Symmetrize density:               0.003     0.003   0.0% |
 Hamiltonian:                      138.089     0.009   0.0% |
  Atomic:                           22.958     0.237   0.0% |
   XC Correction:                   22.722    22.722   0.4% |
  Calculate atomic Hamiltonians:     2.839     2.839   0.1% |
  Communicate:                       0.001     0.001   0.0% |
  Hartree integrate/restrict:        7.548     7.548   0.1% |
  Poisson:                          73.782     4.256   0.1% |
   Communicate from 1D:              7.989     7.989   0.2% |
   Communicate from 2D:              7.982     7.982   0.2% |
   Communicate to 1D:                5.370     5.370   0.1% |
   Communicate to 2D:                7.812     7.812   0.2% |
   FFT 1D:                          11.168    11.168   0.2% |
   FFT 2D:                          29.206    29.206   0.6% |
  XC 3D grid:                       28.645    28.645   0.6% |
  vbar:                              2.307     2.307   0.0% |
 LCAO eigensolver:                2047.202     1.973   0.0% |
  Calculate projections:           141.391   141.391   2.7% ||
  DenseAtomicCorrection:           187.492   187.492   3.6% ||
  Distribute overlap matrix:         2.108     2.108   0.0% |
  Orbital Layouts:                1290.333  1290.333  24.8% |---------|
  Potential matrix:                409.792   409.792   7.9% |--|
  Sum over cells:                   14.111    14.111   0.3% |
ST tci:                              0.310     0.310   0.0% |
Set symmetry:                        0.000     0.000   0.0% |
TCI: Evaluate splines:               0.165     0.165   0.0% |
mktci:                               0.004     0.004   0.0% |
Other:                               2.961     2.961   0.1% |
-----------------------------------------------------------
Total:                                      5206.113 100.0%

Memory usage: 4.49 GiB
Date: Sat Feb 21 04:52:02 2026
