
  ___ ___ ___ _ _ _  
 |   |   |_  | | | | 
 | | | | | . | | | | 
 |__ |  _|___|_____|  25.7.0
 |___|_|             

User:   ubuntu@third-test
Date:   Mon Feb 16 14:22:37 2026
Arch:   x86_64
Pid:    2718679
CWD:    /mnt/vdd1/work/cemea/fairchem/src/fairchem/applications/ocx/mo_h_adsorption_workflow
Python: 3.10.16
gpaw:   /home/ubuntu/.pyenv/versions/cemea-env/lib/python3.10/site-packages/gpaw
_gpaw:  /home/ubuntu/.pyenv/versions/cemea-env/lib/python3.10/site-packages/
        _gpaw.cpython-310-x86_64-linux-gnu.so
ase:    /home/ubuntu/.pyenv/versions/cemea-env/lib/python3.10/site-packages/ase (version 3.27.0)
numpy:  /home/ubuntu/.pyenv/versions/cemea-env/lib/python3.10/site-packages/numpy (version 2.2.6)
scipy:  /home/ubuntu/.pyenv/versions/cemea-env/lib/python3.10/site-packages/scipy (version 1.15.3)
libxc:  2.x.y
units:  Angstrom and eV
cores: 1
OpenMP: False
OMP_NUM_THREADS: 1

Input parameters:
  basis: dzp
  convergence: {density: 0.0001,
                eigenstates: 1e-05,
                energy: 1e-05}
  kpts: [4 4 1]
  mode: lcao

System changes: positions, numbers, cell, pbc, initial_charges, initial_magmoms 

Initialize ...

species:
  Mo:
    name: Molybdenum
    id: ac24daaf086600a00ce6d19a74574df1
    Z: 42.0
    valence: 14
    core: 28
    charge: 0.0
    file: /home/ubuntu/.pyenv/versions/cemea-env/lib/python3.10/site-packages/gpaw_data/setups/Mo.LDA.gz
    compensation charges: {type: gauss,
                           rc: 0.38,
                           lmax: 2}
    cutoffs: {filter: 2.16,
              core: 1.42}
    projectors:
      #              energy  rcut
      - 4s(2.00)   -64.384   1.238
      - 5s(1.00)    -4.319   1.238
      - 4p(6.00)   -38.595   1.296
      - 5p(0.00)    -1.161   1.296
      - 4d(5.00)    -3.933   1.296
      -  d          23.278   1.296
  
    # LCAO basis set for Mo:
    #   Name: dzp
    #   File: /home/ubuntu/.pyenv/versions/cemea-env/lib/python3.10/site-packages/gpaw_data/setups/Mo.dzp.basis.gz
    #   Number of radial functions: 11
    #   Number of spherical harmonics: 29
    #     l=0, rc=3.5469 Bohr: 4s-sz confined orbital
    #     l=0, rc=10.0469 Bohr: 5s-sz confined orbital
    #     l=1, rc=4.0781 Bohr: 4p-sz confined orbital
    #     l=1, rc=14.0938 Bohr: 5p-sz confined orbital
    #     l=2, rc=7.2031 Bohr: 4d-sz confined orbital
    #     l=0, rc=2.1250 Bohr: 4s-dz split-valence wave
    #     l=0, rc=6.1250 Bohr: 5s-dz split-valence wave
    #     l=1, rc=2.5469 Bohr: 4p-dz split-valence wave
    #     l=1, rc=8.7656 Bohr: 5p-dz split-valence wave
    #     l=2, rc=4.2344 Bohr: 4d-dz split-valence wave
    #     l=1, rc=10.0469 Bohr: p-type Gaussian polarization
    #   Number of RI-basis functions 0

  Ni:
    name: Nickel
    id: 1802175e8de9ea26d9f4394ec1a7d564
    Z: 28.0
    valence: 16
    core: 12
    charge: 0.0
    file: /home/ubuntu/.pyenv/versions/cemea-env/lib/python3.10/site-packages/gpaw_data/setups/Ni.LDA.gz
    compensation charges: {type: gauss,
                           rc: 0.36,
                           lmax: 2}
    cutoffs: {filter: 2.14,
              core: 1.98}
    projectors:
      #              energy  rcut
      - 4s(2.00)    -5.858   1.164
      - 3p(6.00)   -71.266   1.207
      - 4p(0.00)    -1.338   1.207
      - 3d(8.00)    -9.141   1.138
      -  s          21.353   1.164
      -  d          18.071   1.138
  
    # LCAO basis set for Ni:
    #   Name: dzp
    #   File: /home/ubuntu/.pyenv/versions/cemea-env/lib/python3.10/site-packages/gpaw_data/setups/Ni.dzp.basis.gz
    #   Number of radial functions: 9
    #   Number of spherical harmonics: 27
    #     l=0, rc=8.5156 Bohr: 4s-sz confined orbital
    #     l=1, rc=2.9375 Bohr: 3p-sz confined orbital
    #     l=1, rc=12.4062 Bohr: 4p-sz confined orbital
    #     l=2, rc=4.6875 Bohr: 3d-sz confined orbital
    #     l=0, rc=4.9688 Bohr: 4s-dz split-valence wave
    #     l=1, rc=2.0781 Bohr: 3p-dz split-valence wave
    #     l=1, rc=7.5469 Bohr: 4p-dz split-valence wave
    #     l=2, rc=2.9375 Bohr: 3d-dz split-valence wave
    #     l=1, rc=8.5156 Bohr: p-type Gaussian polarization
    #   Number of RI-basis functions 0

  N:
    name: Nitrogen
    id: c467cdfa1b75f62c8f7a0469921b1cfb
    Z: 7.0
    valence: 5
    core: 2
    charge: 0.0
    file: /home/ubuntu/.pyenv/versions/cemea-env/lib/python3.10/site-packages/gpaw_data/setups/N.LDA.gz
    compensation charges: {type: gauss,
                           rc: 0.18,
                           lmax: 2}
    cutoffs: {filter: 1.11,
              core: 0.96}
    projectors:
      #              energy  rcut
      - 2s(2.00)   -18.420   0.603
      - 2p(3.00)    -7.237   0.529
      -  s           8.791   0.603
      -  p          19.974   0.529
      -  d           0.000   0.577
  
    # LCAO basis set for N:
    #   Name: dzp
    #   File: /home/ubuntu/.pyenv/versions/cemea-env/lib/python3.10/site-packages/gpaw_data/setups/N.dzp.basis.gz
    #   Number of radial functions: 5
    #   Number of spherical harmonics: 13
    #     l=0, rc=4.8594 Bohr: 2s-sz confined orbital
    #     l=1, rc=6.0625 Bohr: 2p-sz confined orbital
    #     l=0, rc=2.6094 Bohr: 2s-dz split-valence wave
    #     l=1, rc=3.2656 Bohr: 2p-dz split-valence wave
    #     l=2, rc=6.0625 Bohr: d-type Gaussian polarization
    #   Number of RI-basis functions 0

Reference energy: -817322.784907  # eV

Spin-paired calculation

Convergence criteria:
 Maximum [total energy] change in last 3 cyles: 1e-05 eV / valence electron
 Maximum integral of absolute [dens]ity change: 0.0001 electrons / valence electron
 Maximum integral of absolute [eigenst]ate change: 1e-05 eV^2 / valence electron
 Maximum number of scf [iter]ations: 333
 (Square brackets indicate name in SCF output, whereas a 'c' in
 the SCF output indicates the quantity has converged.)

Symmetries present (total): 2

  ( 1  0  0)  ( 0  1  0)
  ( 0  1  0)  ( 1  0  0)
  ( 0  0  1)  ( 0  0  1)

16 k-points: 4 x 4 x 1 Monkhorst-Pack grid
6 k-points in the irreducible part of the Brillouin zone
       k-points in crystal coordinates                weights
   0:     0.12500000   -0.12500000    0.00000000          2/16
   1:     0.12500000    0.12500000    0.00000000          2/16
   2:     0.37500000   -0.37500000    0.00000000          2/16
   3:     0.37500000   -0.12500000    0.00000000          4/16
   4:     0.37500000    0.12500000    0.00000000          4/16
   5:     0.37500000    0.37500000    0.00000000          2/16

Wave functions: LCAO
  Diagonalizer: Serial LAPACK
  Atomic Correction: dense with blas
  Data-type: complex
 

Occupation numbers: Fermi-Dirac:
  width: 0.1000  # eV
 

Eigensolver
   LCAO using direct dense diagonalizer 

Densities:
  Coarse grid: 40*40*92 grid
  Fine grid: 80*80*184 grid
  Total Charge: 0.000000 

Density mixing:
  Method: separate
  Backend: pulay
  Linear mixing parameter: 0.05
  old densities: 5
  Damping of long wavelength oscillations: 50 

Hamiltonian:
  XC and Coulomb potentials evaluated on a 80*80*184 grid
  Using the LDA Exchange-Correlation functional
  Interpolation: tri-quintic (5. degree polynomial)
  Poisson solver: FastPoissonSolver using
    Stencil: 6*3+1=19 point O(h^6) finite-difference Laplacian
    FFT axes: [np.int64(0), np.int64(1), np.int64(2)]
    FST axes: []
 

Memory estimate:
  Process memory now: 1328.82 MiB
  Calculator: 195.58 MiB
    Density: 79.28 MiB
      Arrays: 29.20 MiB
      Localized functions: 38.85 MiB
      Mixer: 11.23 MiB
    Hamiltonian: 21.67 MiB
      Arrays: 19.09 MiB
      XC: 0.00 MiB
      Poisson: 0.00 MiB
      vbar: 2.57 MiB
    Wavefunctions: 94.64 MiB
      C [qnM]: 2.19 MiB
      S, T [2 x qmm]: 14.56 MiB
      P [aqMi]: 0.32 MiB
      BasisFunctions: 77.57 MiB
      Eigensolver: 0.00 MiB

Total number of cores used: 1

Number of atoms: 12
Number of atomic orbitals: 282
Number of bands in calculation: 85
Number of valence electrons: 134
Bands to converge: occupied

... initialized

Initializing position-dependent things.

Density initialized from atomic densities
      .-------------------.  
     /|                   |  
    / |                   |  
   /  |                   |  
  /   |                   |  
 *    |                   |  
 |    |                   |  
 |    |                   |  
 |    |                   |  
 |    |                   |  
 |    |                   |  
 |    |   Mo        Mo    |  
 |    |                   |  
 |    |Ni        Mo       |  
 |    |   N         N     |  
 |  Mo|       Mo          |  
 |    |N         N        |  
 Mo   |    Mo             |  
 |    |                   |  
 |    |                   |  
 |    |                   |  
 |    |                   |  
 |    .-------------------.  
 |   /                   /   
 |  /                   /    
 | /                   /     
 |/                   /      
 *-------------------*       

Atomic positions and initial magnetic moments

Positions:
   0 Mo     0.000000    0.000000    8.000000    ( 0.0000,  0.0000,  0.0000)
   1 Ni     2.080000    2.080000   10.080000    ( 0.0000,  0.0000,  0.0000)
   2 N      2.080000    2.080000    8.000000    ( 0.0000,  0.0000,  0.0000)
   3 Mo     0.000000    4.160000    8.000000    ( 0.0000,  0.0000,  0.0000)
   4 Mo     2.080000    6.240000   10.080000    ( 0.0000,  0.0000,  0.0000)
   5 N      2.080000    6.240000    8.000000    ( 0.0000,  0.0000,  0.0000)
   6 Mo     4.160000    0.000000    8.000000    ( 0.0000,  0.0000,  0.0000)
   7 Mo     6.240000    2.080000   10.080000    ( 0.0000,  0.0000,  0.0000)
   8 N      6.240000    2.080000    8.000000    ( 0.0000,  0.0000,  0.0000)
   9 Mo     4.160000    4.160000    8.000000    ( 0.0000,  0.0000,  0.0000)
  10 Mo     6.240000    6.240000   10.080000    ( 0.0000,  0.0000,  0.0000)
  11 N      6.240000    6.240000    8.000000    ( 0.0000,  0.0000,  0.0000)

Unit cell:
           periodic     x           y           z      points  spacing
  1. axis:    yes    8.320000    0.000000    0.000000    40     0.2080
  2. axis:    yes    0.000000    8.320000    0.000000    40     0.2080
  3. axis:    yes    0.000000    0.000000   18.080000    92     0.1965

  Lengths:   8.320000   8.320000  18.080000
  Angles:   90.000000  90.000000  90.000000

Effective grid spacing dv^(1/3) = 0.2041

     iter     time        total  log10-change:
                         energy   eigst   dens
iter:   1 14:23:44   -96.877472        c
iter:   2 14:25:02   -84.382134        c -0.88
iter:   3 14:26:14   -78.600794        c -1.02
iter:   4 14:27:39   -78.435519        c -1.05
iter:   5 14:29:02   -76.759534        c -1.12
iter:   6 14:30:28   -79.028181        c -1.18
iter:   7 14:31:49   -79.264172        c -1.21
iter:   8 14:33:19   -82.574236        c -1.28
iter:   9 14:34:39   -80.842986        c -1.47
iter:  10 14:36:03   -77.869455        c -1.39
iter:  11 14:37:21   -75.176839        c -1.64
iter:  12 14:38:44   -73.056790        c -1.70
iter:  13 14:40:03   -73.051674        c -1.60
iter:  14 14:41:28   -72.931566        c -1.73
iter:  15 14:42:49   -72.920554        c -1.80
iter:  16 14:44:13   -72.532260        c -1.91
iter:  17 14:45:36   -72.456003        c -1.96
iter:  18 14:46:57   -72.171933        c -1.97
iter:  19 14:48:23   -72.437009        c -2.14
iter:  20 14:49:44   -72.577156        c -2.01
iter:  21 14:51:03   -72.317870        c -2.07
iter:  22 14:52:22   -72.085070        c -2.18
iter:  23 14:53:44   -72.086774        c -2.38
iter:  24 14:55:06   -72.043742        c -2.37
iter:  25 14:56:33   -72.072614        c -2.49
iter:  26 14:57:49   -72.067505        c -2.47
iter:  27 14:59:12   -72.029565        c -2.60
iter:  28 15:00:37   -72.027477        c -2.98
iter:  29 15:01:57   -72.028053        c -3.03
iter:  30 15:03:23   -72.029752        c -3.00
iter:  31 15:04:23   -72.027095        c -3.03
iter:  32 15:05:46   -72.026915        c -3.34
iter:  33 15:07:09   -72.026566c       c -3.27
iter:  34 15:08:25   -72.025569        c -3.44
iter:  35 15:09:44   -72.025894c       c -3.57
iter:  36 15:11:07   -72.026089c       c -3.56
iter:  37 15:12:26   -72.025612c       c -3.64
iter:  38 15:13:47   -72.025869c       c -3.65
iter:  39 15:15:02   -72.025454c       c -3.71
iter:  40 15:16:17   -72.025684c       c -3.71
iter:  41 15:17:41   -72.025970c       c -3.81
iter:  42 15:18:57   -72.026058c       c -4.02c

Converged after 42 iterations.

Dipole moment: (-5.358506, -5.358506, 0.442428) |e|*Ang

Energy contributions relative to reference atoms: (reference = -817322.784907)

Kinetic:       -167.971539
Potential:     +112.229387
External:        +0.000000
XC:             -17.558515
Entropy (-ST):   -1.437695
Local:           +1.993455
SIC:             +0.000000
--------------------------
Free energy:    -72.744906
Extrapolated:   -72.026058

Showing only first 2 kpts
 Kpt  Band  Eigenvalues  Occupancy
  0    65     -2.18357    1.19544
  0    66     -2.15190    1.03963
  0    67     -2.12589    0.90986
  0    68     -2.08087    0.69457

  1    65     -2.18357    1.19544
  1    66     -2.15191    1.03967
  1    67     -2.12589    0.90986
  1    68     -2.08087    0.69456


Fermi level: -2.14397

No gap
No difference between direct/indirect transitions
Timing:                              incl.     excl.
-----------------------------------------------------------
Basic WFS set positions:             0.000     0.000   0.0% |
Basis functions set positions:       0.090     0.090   0.0% |
LCAO WFS Initialize:                 0.482     0.143   0.0% |
 Hamiltonian:                        0.339     0.000   0.0% |
  Atomic:                            0.076     0.001   0.0% |
   XC Correction:                    0.075     0.075   0.0% |
  Calculate atomic Hamiltonians:     0.008     0.008   0.0% |
  Communicate:                       0.000     0.000   0.0% |
  Hartree integrate/restrict:        0.028     0.028   0.0% |
  Initialize Hamiltonian:            0.001     0.001   0.0% |
  Poisson:                           0.152     0.006   0.0% |
   Communicate from 1D:              0.021     0.021   0.0% |
   Communicate from 2D:              0.021     0.021   0.0% |
   Communicate to 1D:                0.022     0.022   0.0% |
   Communicate to 2D:                0.024     0.024   0.0% |
   FFT 1D:                           0.021     0.021   0.0% |
   FFT 2D:                           0.038     0.038   0.0% |
  XC 3D grid:                        0.058     0.058   0.0% |
  vbar:                              0.015     0.015   0.0% |
P tci:                               0.600     0.600   0.0% |
SCF-cycle:                        3376.312     0.074   0.0% |
 Density:                          362.485     0.001   0.0% |
  Atomic density matrices:           0.121     0.121   0.0% |
  Mix:                              14.929    14.929   0.4% |
  Multipole moments:                 0.009     0.009   0.0% |
  Normalize:                         0.003     0.003   0.0% |
  Pseudo density:                  347.421     0.026   0.0% |
   Calculate density matrix:         8.144     8.144   0.2% |
   Construct density:              339.087   339.087  10.0% |---|
   Symmetrize density:               0.164     0.164   0.0% |
 Hamiltonian:                       14.421     0.004   0.0% |
  Atomic:                            3.256     0.045   0.0% |
   XC Correction:                    3.212     3.212   0.1% |
  Calculate atomic Hamiltonians:     0.336     0.336   0.0% |
  Communicate:                       0.000     0.000   0.0% |
  Hartree integrate/restrict:        1.486     1.486   0.0% |
  Poisson:                           5.426     0.262   0.0% |
   Communicate from 1D:              0.835     0.835   0.0% |
   Communicate from 2D:              0.747     0.747   0.0% |
   Communicate to 1D:                0.688     0.688   0.0% |
   Communicate to 2D:                0.913     0.913   0.0% |
   FFT 1D:                           0.744     0.744   0.0% |
   FFT 2D:                           1.238     1.238   0.0% |
  XC 3D grid:                        3.023     3.023   0.1% |
  vbar:                              0.888     0.888   0.0% |
 LCAO eigensolver:                2999.332     0.072   0.0% |
  Calculate projections:             9.328     9.328   0.3% |
  DenseAtomicCorrection:            47.167    47.167   1.4% ||
  Distribute overlap matrix:         0.042     0.042   0.0% |
  Orbital Layouts:                2849.264  2849.264  84.3% |---------------------------------|
  Potential matrix:                 86.163    86.163   2.5% ||
  Sum over cells:                    7.297     7.297   0.2% |
ST tci:                              0.297     0.297   0.0% |
Set symmetry:                        0.001     0.001   0.0% |
TCI: Evaluate splines:               0.685     0.685   0.0% |
mktci:                               0.007     0.007   0.0% |
Other:                               0.823     0.823   0.0% |
-----------------------------------------------------------
Total:                                      3379.298 100.0%

Memory usage: 1.30 GiB
Date: Mon Feb 16 15:18:57 2026
