
  ___ ___ ___ _ _ _  
 |   |   |_  | | | | 
 | | | | | . | | | | 
 |__ |  _|___|_____|  25.7.0
 |___|_|             

User:   ubuntu@third-test
Date:   Mon Feb 16 15:18:57 2026
Arch:   x86_64
Pid:    2718679
CWD:    /mnt/vdd1/work/cemea/fairchem/src/fairchem/applications/ocx/mo_h_adsorption_workflow
Python: 3.10.16
gpaw:   /home/ubuntu/.pyenv/versions/cemea-env/lib/python3.10/site-packages/gpaw
_gpaw:  /home/ubuntu/.pyenv/versions/cemea-env/lib/python3.10/site-packages/
        _gpaw.cpython-310-x86_64-linux-gnu.so
ase:    /home/ubuntu/.pyenv/versions/cemea-env/lib/python3.10/site-packages/ase (version 3.27.0)
numpy:  /home/ubuntu/.pyenv/versions/cemea-env/lib/python3.10/site-packages/numpy (version 2.2.6)
scipy:  /home/ubuntu/.pyenv/versions/cemea-env/lib/python3.10/site-packages/scipy (version 1.15.3)
libxc:  2.x.y
units:  Angstrom and eV
cores: 1
OpenMP: False
OMP_NUM_THREADS: 1

Input parameters:
  basis: dzp
  convergence: {density: 0.0001,
                eigenstates: 1e-05,
                energy: 1e-05}
  kpts: [4 4 1]
  mode: lcao

System changes: positions, numbers, cell, pbc, initial_charges, initial_magmoms 

Initialize ...

species:
  Mo:
    name: Molybdenum
    id: ac24daaf086600a00ce6d19a74574df1
    Z: 42.0
    valence: 14
    core: 28
    charge: 0.0
    file: /home/ubuntu/.pyenv/versions/cemea-env/lib/python3.10/site-packages/gpaw_data/setups/Mo.LDA.gz
    compensation charges: {type: gauss,
                           rc: 0.38,
                           lmax: 2}
    cutoffs: {filter: 2.16,
              core: 1.42}
    projectors:
      #              energy  rcut
      - 4s(2.00)   -64.384   1.238
      - 5s(1.00)    -4.319   1.238
      - 4p(6.00)   -38.595   1.296
      - 5p(0.00)    -1.161   1.296
      - 4d(5.00)    -3.933   1.296
      -  d          23.278   1.296
  
    # LCAO basis set for Mo:
    #   Name: dzp
    #   File: /home/ubuntu/.pyenv/versions/cemea-env/lib/python3.10/site-packages/gpaw_data/setups/Mo.dzp.basis.gz
    #   Number of radial functions: 11
    #   Number of spherical harmonics: 29
    #     l=0, rc=3.5469 Bohr: 4s-sz confined orbital
    #     l=0, rc=10.0469 Bohr: 5s-sz confined orbital
    #     l=1, rc=4.0781 Bohr: 4p-sz confined orbital
    #     l=1, rc=14.0938 Bohr: 5p-sz confined orbital
    #     l=2, rc=7.2031 Bohr: 4d-sz confined orbital
    #     l=0, rc=2.1250 Bohr: 4s-dz split-valence wave
    #     l=0, rc=6.1250 Bohr: 5s-dz split-valence wave
    #     l=1, rc=2.5469 Bohr: 4p-dz split-valence wave
    #     l=1, rc=8.7656 Bohr: 5p-dz split-valence wave
    #     l=2, rc=4.2344 Bohr: 4d-dz split-valence wave
    #     l=1, rc=10.0469 Bohr: p-type Gaussian polarization
    #   Number of RI-basis functions 0

  Ni:
    name: Nickel
    id: 1802175e8de9ea26d9f4394ec1a7d564
    Z: 28.0
    valence: 16
    core: 12
    charge: 0.0
    file: /home/ubuntu/.pyenv/versions/cemea-env/lib/python3.10/site-packages/gpaw_data/setups/Ni.LDA.gz
    compensation charges: {type: gauss,
                           rc: 0.36,
                           lmax: 2}
    cutoffs: {filter: 2.14,
              core: 1.98}
    projectors:
      #              energy  rcut
      - 4s(2.00)    -5.858   1.164
      - 3p(6.00)   -71.266   1.207
      - 4p(0.00)    -1.338   1.207
      - 3d(8.00)    -9.141   1.138
      -  s          21.353   1.164
      -  d          18.071   1.138
  
    # LCAO basis set for Ni:
    #   Name: dzp
    #   File: /home/ubuntu/.pyenv/versions/cemea-env/lib/python3.10/site-packages/gpaw_data/setups/Ni.dzp.basis.gz
    #   Number of radial functions: 9
    #   Number of spherical harmonics: 27
    #     l=0, rc=8.5156 Bohr: 4s-sz confined orbital
    #     l=1, rc=2.9375 Bohr: 3p-sz confined orbital
    #     l=1, rc=12.4062 Bohr: 4p-sz confined orbital
    #     l=2, rc=4.6875 Bohr: 3d-sz confined orbital
    #     l=0, rc=4.9688 Bohr: 4s-dz split-valence wave
    #     l=1, rc=2.0781 Bohr: 3p-dz split-valence wave
    #     l=1, rc=7.5469 Bohr: 4p-dz split-valence wave
    #     l=2, rc=2.9375 Bohr: 3d-dz split-valence wave
    #     l=1, rc=8.5156 Bohr: p-type Gaussian polarization
    #   Number of RI-basis functions 0

  N:
    name: Nitrogen
    id: c467cdfa1b75f62c8f7a0469921b1cfb
    Z: 7.0
    valence: 5
    core: 2
    charge: 0.0
    file: /home/ubuntu/.pyenv/versions/cemea-env/lib/python3.10/site-packages/gpaw_data/setups/N.LDA.gz
    compensation charges: {type: gauss,
                           rc: 0.18,
                           lmax: 2}
    cutoffs: {filter: 1.11,
              core: 0.96}
    projectors:
      #              energy  rcut
      - 2s(2.00)   -18.420   0.603
      - 2p(3.00)    -7.237   0.529
      -  s           8.791   0.603
      -  p          19.974   0.529
      -  d           0.000   0.577
  
    # LCAO basis set for N:
    #   Name: dzp
    #   File: /home/ubuntu/.pyenv/versions/cemea-env/lib/python3.10/site-packages/gpaw_data/setups/N.dzp.basis.gz
    #   Number of radial functions: 5
    #   Number of spherical harmonics: 13
    #     l=0, rc=4.8594 Bohr: 2s-sz confined orbital
    #     l=1, rc=6.0625 Bohr: 2p-sz confined orbital
    #     l=0, rc=2.6094 Bohr: 2s-dz split-valence wave
    #     l=1, rc=3.2656 Bohr: 2p-dz split-valence wave
    #     l=2, rc=6.0625 Bohr: d-type Gaussian polarization
    #   Number of RI-basis functions 0

  H:
    name: Hydrogen
    id: 4766778ce56282eaa64abeb28b7c1de3
    Z: 1.0
    valence: 1
    core: 0
    charge: 0.0
    file: /home/ubuntu/.pyenv/versions/cemea-env/lib/python3.10/site-packages/gpaw_data/setups/H.LDA.gz
    compensation charges: {type: gauss,
                           rc: 0.15,
                           lmax: 2}
    cutoffs: {filter: 0.85,
              core: 0.53}
    projectors:
      #              energy  rcut
      - 1s(1.00)    -6.353   0.476
      -  s          20.858   0.476
      -  p           0.000   0.476
  
    # LCAO basis set for H:
    #   Name: dzp
    #   File: /home/ubuntu/.pyenv/versions/cemea-env/lib/python3.10/site-packages/gpaw_data/setups/H.dzp.basis.gz
    #   Number of radial functions: 3
    #   Number of spherical harmonics: 5
    #     l=0, rc=6.4219 Bohr: 1s-sz confined orbital
    #     l=0, rc=3.6094 Bohr: 1s-dz split-valence wave
    #     l=1, rc=6.4219 Bohr: p-type Gaussian polarization
    #   Number of RI-basis functions 0

Reference energy: -817334.913866  # eV

Spin-paired calculation

Convergence criteria:
 Maximum [total energy] change in last 3 cyles: 1e-05 eV / valence electron
 Maximum integral of absolute [dens]ity change: 0.0001 electrons / valence electron
 Maximum integral of absolute [eigenst]ate change: 1e-05 eV^2 / valence electron
 Maximum number of scf [iter]ations: 333
 (Square brackets indicate name in SCF output, whereas a 'c' in
 the SCF output indicates the quantity has converged.)

Symmetries present (total): 2

  ( 1  0  0)  ( 0  1  0)
  ( 0  1  0)  ( 1  0  0)
  ( 0  0  1)  ( 0  0  1)

16 k-points: 4 x 4 x 1 Monkhorst-Pack grid
6 k-points in the irreducible part of the Brillouin zone
       k-points in crystal coordinates                weights
   0:     0.12500000   -0.12500000    0.00000000          2/16
   1:     0.12500000    0.12500000    0.00000000          2/16
   2:     0.37500000   -0.37500000    0.00000000          2/16
   3:     0.37500000   -0.12500000    0.00000000          4/16
   4:     0.37500000    0.12500000    0.00000000          4/16
   5:     0.37500000    0.37500000    0.00000000          2/16

Wave functions: LCAO
  Diagonalizer: Serial LAPACK
  Atomic Correction: dense with blas
  Data-type: complex
 

Occupation numbers: Fermi-Dirac:
  width: 0.1000  # eV
 

Eigensolver
   LCAO using direct dense diagonalizer 

Densities:
  Coarse grid: 40*40*92 grid
  Fine grid: 80*80*184 grid
  Total Charge: 0.000000 

Density mixing:
  Method: separate
  Backend: pulay
  Linear mixing parameter: 0.05
  old densities: 5
  Damping of long wavelength oscillations: 50 

Hamiltonian:
  XC and Coulomb potentials evaluated on a 80*80*184 grid
  Using the LDA Exchange-Correlation functional
  Interpolation: tri-quintic (5. degree polynomial)
  Poisson solver: FastPoissonSolver using
    Stencil: 6*3+1=19 point O(h^6) finite-difference Laplacian
    FFT axes: [np.int64(0), np.int64(1), np.int64(2)]
    FST axes: []
 

Memory estimate:
  Process memory now: 1328.82 MiB
  Calculator: 197.03 MiB
    Density: 79.51 MiB
      Arrays: 29.20 MiB
      Localized functions: 39.08 MiB
      Mixer: 11.23 MiB
    Hamiltonian: 21.68 MiB
      Arrays: 19.09 MiB
      XC: 0.00 MiB
      Poisson: 0.00 MiB
      vbar: 2.59 MiB
    Wavefunctions: 95.83 MiB
      C [qnM]: 2.23 MiB
      S, T [2 x qmm]: 15.08 MiB
      P [aqMi]: 0.33 MiB
      BasisFunctions: 78.18 MiB
      Eigensolver: 0.00 MiB

Total number of cores used: 1

Number of atoms: 13
Number of atomic orbitals: 287
Number of bands in calculation: 85
Number of valence electrons: 135
Bands to converge: occupied

... initialized

Initializing position-dependent things.

Density initialized from atomic densities
      .-------------------.  
     /|                   |  
    / |                   |  
   /  |                   |  
  /   |                   |  
 *    |                   |  
 |    |                   |  
 |    |                   |  
 |    |                   |  
 |    |                   |  
 |    |                   |  
 |    |   MH        Mo    |  
 |    |                   |  
 |    |Ni        Mo       |  
 |    |   N         N     |  
 |  Mo|       Mo          |  
 |    |N         N        |  
 Mo   |    Mo             |  
 |    |                   |  
 |    |                   |  
 |    |                   |  
 |    |                   |  
 |    .-------------------.  
 |   /                   /   
 |  /                   /    
 | /                   /     
 |/                   /      
 *-------------------*       

Atomic positions and initial magnetic moments

Positions:
   0 Mo     0.000000    0.000000    8.000000    ( 0.0000,  0.0000,  0.0000)
   1 Ni     2.080000    2.080000   10.080000    ( 0.0000,  0.0000,  0.0000)
   2 N      2.080000    2.080000    8.000000    ( 0.0000,  0.0000,  0.0000)
   3 Mo     0.000000    4.160000    8.000000    ( 0.0000,  0.0000,  0.0000)
   4 Mo     2.080000    6.240000   10.080000    ( 0.0000,  0.0000,  0.0000)
   5 N      2.080000    6.240000    8.000000    ( 0.0000,  0.0000,  0.0000)
   6 Mo     4.160000    0.000000    8.000000    ( 0.0000,  0.0000,  0.0000)
   7 Mo     6.240000    2.080000   10.080000    ( 0.0000,  0.0000,  0.0000)
   8 N      6.240000    2.080000    8.000000    ( 0.0000,  0.0000,  0.0000)
   9 Mo     4.160000    4.160000    8.000000    ( 0.0000,  0.0000,  0.0000)
  10 Mo     6.240000    6.240000   10.080000    ( 0.0000,  0.0000,  0.0000)
  11 N      6.240000    6.240000    8.000000    ( 0.0000,  0.0000,  0.0000)
  12 H      3.466667    3.466667   11.580000    ( 0.0000,  0.0000,  0.0000)

Unit cell:
           periodic     x           y           z      points  spacing
  1. axis:    yes    8.320000    0.000000    0.000000    40     0.2080
  2. axis:    yes    0.000000    8.320000    0.000000    40     0.2080
  3. axis:    yes    0.000000    0.000000   18.080000    92     0.1965

  Lengths:   8.320000   8.320000  18.080000
  Angles:   90.000000  90.000000  90.000000

Effective grid spacing dv^(1/3) = 0.2041

     iter     time        total  log10-change:
                         energy   eigst   dens
iter:   1 15:20:19   -99.853592        c
iter:   2 15:21:50   -87.015336        c -0.87
iter:   3 15:23:08   -81.116918        c -1.01
iter:   4 15:24:29   -81.388889        c -1.04
iter:   5 15:25:51   -78.959670        c -1.11
iter:   6 15:27:19   -80.460625        c -1.17
iter:   7 15:28:27   -81.269192        c -1.22
iter:   8 15:29:43   -83.217823        c -1.31
iter:   9 15:31:07   -82.369973        c -1.38
iter:  10 15:32:33   -78.564600        c -1.48
iter:  11 15:33:59   -77.222067        c -1.58
iter:  12 15:35:20   -75.105755        c -1.70
iter:  13 15:36:38   -76.335799        c -1.73
iter:  14 15:37:58   -76.098947        c -1.44
iter:  15 15:39:24   -74.525934        c -1.74
iter:  16 15:40:45   -74.551967        c -1.90
iter:  17 15:41:59   -74.729558        c -1.87
iter:  18 15:43:21   -75.029120        c -1.83
iter:  19 15:44:42   -75.096806        c -1.83
iter:  20 15:46:10   -74.817316        c -1.87
iter:  21 15:47:30   -74.591126        c -1.91
iter:  22 15:48:51   -74.406471        c -2.08
iter:  23 15:50:14   -74.413756        c -2.25
iter:  24 15:51:25   -74.401753        c -2.22
iter:  25 15:52:46   -74.392704        c -2.44
iter:  26 15:54:01   -74.383573        c -2.46
iter:  27 15:55:24   -74.378197        c -2.51
iter:  28 15:56:45   -74.373315        c -2.73
iter:  29 15:57:58   -74.371663        c -2.72
iter:  30 15:59:14   -74.370894        c -2.80
iter:  31 16:00:34   -74.370768c       c -2.84
iter:  32 16:01:53   -74.370784c       c -2.84
iter:  33 16:03:17   -74.373259        c -3.08
iter:  34 16:04:40   -74.373224        c -3.26
iter:  35 16:05:58   -74.373077c       c -3.37
iter:  36 16:07:22   -74.373174c       c -3.45
iter:  37 16:08:49   -74.373597c       c -3.60
iter:  38 16:10:09   -74.373735c       c -3.66
iter:  39 16:11:36   -74.373485c       c -3.70
iter:  40 16:12:53   -74.373857c       c -3.75
iter:  41 16:14:20   -74.374258c       c -3.75
iter:  42 16:15:41   -74.373625c       c -3.79
iter:  43 16:17:10   -74.373998c       c -3.88
iter:  44 16:18:32   -74.374135c       c -3.91
iter:  45 16:20:00   -74.373860c       c -3.94
iter:  46 16:21:25   -74.374097c       c -4.02c

Converged after 46 iterations.

Dipole moment: (-5.206796, -5.206796, 0.136839) |e|*Ang

Energy contributions relative to reference atoms: (reference = -817334.913866)

Kinetic:       -172.743782
Potential:     +115.160756
External:        +0.000000
XC:             -18.081283
Entropy (-ST):   -1.419592
Local:           +2.000009
SIC:             +0.000000
--------------------------
Free energy:    -75.083893
Extrapolated:   -74.374097

Showing only first 2 kpts
 Kpt  Band  Eigenvalues  Occupancy
  0    65     -2.37707    1.23228
  0    66     -2.36643    1.18135
  0    67     -2.31907    0.94666
  0    68     -2.30955    0.89935

  1    65     -2.36898    1.19365
  1    66     -2.36703    1.18425
  1    67     -2.31376    0.92020
  1    68     -2.31317    0.91729


Fermi level: -2.32975

Gap: 0.011 eV
Transition (v -> c):
  (s=0, k=4, n=66, [0.38, 0.12, 0.00]) -> (s=0, k=2, n=67, [0.38, -0.38, 0.00])
Direct/indirect transitions are different
Direct gap: 0.047 eV
Transition at: (s=0, k=0, n=66, [0.12, -0.12, 0.00])
Timing:                              incl.     excl.
-----------------------------------------------------------
Basic WFS set positions:             0.000     0.000   0.0% |
Basis functions set positions:       0.093     0.093   0.0% |
LCAO WFS Initialize:                 0.432     0.091   0.0% |
 Hamiltonian:                        0.341     0.000   0.0% |
  Atomic:                            0.079     0.001   0.0% |
   XC Correction:                    0.078     0.078   0.0% |
  Calculate atomic Hamiltonians:     0.008     0.008   0.0% |
  Communicate:                       0.000     0.000   0.0% |
  Hartree integrate/restrict:        0.037     0.037   0.0% |
  Initialize Hamiltonian:            0.000     0.000   0.0% |
  Poisson:                           0.154     0.009   0.0% |
   Communicate from 1D:              0.023     0.023   0.0% |
   Communicate from 2D:              0.021     0.021   0.0% |
   Communicate to 1D:                0.022     0.022   0.0% |
   Communicate to 2D:                0.024     0.024   0.0% |
   FFT 1D:                           0.021     0.021   0.0% |
   FFT 2D:                           0.035     0.035   0.0% |
  XC 3D grid:                        0.059     0.059   0.0% |
  vbar:                              0.003     0.003   0.0% |
P tci:                               0.665     0.665   0.0% |
SCF-cycle:                        3742.879     0.064   0.0% |
 Density:                          411.991     0.001   0.0% |
  Atomic density matrices:           0.143     0.143   0.0% |
  Mix:                              15.847    15.847   0.4% |
  Multipole moments:                 0.011     0.011   0.0% |
  Normalize:                         0.004     0.004   0.0% |
  Pseudo density:                  395.984     0.028   0.0% |
   Calculate density matrix:         8.826     8.826   0.2% |
   Construct density:              386.951   386.951  10.3% |---|
   Symmetrize density:               0.180     0.180   0.0% |
 Hamiltonian:                       16.402     0.005   0.0% |
  Atomic:                            3.710     0.052   0.0% |
   XC Correction:                    3.658     3.658   0.1% |
  Calculate atomic Hamiltonians:     0.416     0.416   0.0% |
  Communicate:                       0.000     0.000   0.0% |
  Hartree integrate/restrict:        1.694     1.694   0.0% |
  Poisson:                           6.155     0.314   0.0% |
   Communicate from 1D:              0.915     0.915   0.0% |
   Communicate from 2D:              0.852     0.852   0.0% |
   Communicate to 1D:                0.767     0.767   0.0% |
   Communicate to 2D:                1.064     1.064   0.0% |
   FFT 1D:                           0.857     0.857   0.0% |
   FFT 2D:                           1.386     1.386   0.0% |
  XC 3D grid:                        3.519     3.519   0.1% |
  vbar:                              0.904     0.904   0.0% |
 LCAO eigensolver:                3314.422     0.086   0.0% |
  Calculate projections:             9.945     9.945   0.3% |
  DenseAtomicCorrection:            88.072    88.072   2.3% ||
  Distribute overlap matrix:         0.049     0.049   0.0% |
  Orbital Layouts:                3114.497  3114.497  83.1% |--------------------------------|
  Potential matrix:                 94.558    94.558   2.5% ||
  Sum over cells:                    7.215     7.215   0.2% |
ST tci:                              0.313     0.313   0.0% |
Set symmetry:                        0.001     0.001   0.0% |
TCI: Evaluate splines:               0.821     0.821   0.0% |
mktci:                               0.008     0.008   0.0% |
Other:                               2.975     2.975   0.1% |
-----------------------------------------------------------
Total:                                      3748.188 100.0%

Memory usage: 1.30 GiB
Date: Mon Feb 16 16:21:25 2026
