
  ___ ___ ___ _ _ _  
 |   |   |_  | | | | 
 | | | | | . | | | | 
 |__ |  _|___|_____|  25.7.0
 |___|_|             

User:   mikei@Z790-AORUS-ELITE-AX
Date:   Sun Feb 22 06:32:08 2026
Arch:   x86_64
Pid:    89048
CWD:    /home/mikei/Dokumenty/code/cemea/ocx
Python: 3.10.16
gpaw:   /home/mikei/.pyenv/versions/cemea-env/lib/python3.10/site-packages/gpaw
_gpaw:  /home/mikei/.pyenv/versions/cemea-env/lib/python3.10/site-packages/
        _gpaw.cpython-310-x86_64-linux-gnu.so
ase:    /home/mikei/.pyenv/versions/cemea-env/lib/python3.10/site-packages/ase (version 3.27.0)
numpy:  /home/mikei/.pyenv/versions/cemea-env/lib/python3.10/site-packages/numpy (version 2.2.6)
scipy:  /home/mikei/.pyenv/versions/cemea-env/lib/python3.10/site-packages/scipy (version 1.15.3)
libxc:  2.x.y
units:  Angstrom and eV
cores: 1
OpenMP: False
OMP_NUM_THREADS: 1

Input parameters:
  basis: dzp
  convergence: {density: 0.0001,
                eigenstates: 1e-05,
                energy: 1e-05}
  kpts: [4 4 1]
  mode: lcao

System changes: positions, numbers, cell, pbc, initial_charges, initial_magmoms 

Initialize ...

species:
  Ni:
    name: Nickel
    id: 1802175e8de9ea26d9f4394ec1a7d564
    Z: 28.0
    valence: 16
    core: 12
    charge: 0.0
    file: /home/mikei/.pyenv/versions/cemea-env/lib/python3.10/site-packages/gpaw_data/setups/Ni.LDA.gz
    compensation charges: {type: gauss,
                           rc: 0.36,
                           lmax: 2}
    cutoffs: {filter: 2.14,
              core: 1.98}
    projectors:
      #              energy  rcut
      - 4s(2.00)    -5.858   1.164
      - 3p(6.00)   -71.266   1.207
      - 4p(0.00)    -1.338   1.207
      - 3d(8.00)    -9.141   1.138
      -  s          21.353   1.164
      -  d          18.071   1.138
  
    # LCAO basis set for Ni:
    #   Name: dzp
    #   File: /home/mikei/.pyenv/versions/cemea-env/lib/python3.10/site-packages/gpaw_data/setups/Ni.dzp.basis.gz
    #   Number of radial functions: 9
    #   Number of spherical harmonics: 27
    #     l=0, rc=8.5156 Bohr: 4s-sz confined orbital
    #     l=1, rc=2.9375 Bohr: 3p-sz confined orbital
    #     l=1, rc=12.4062 Bohr: 4p-sz confined orbital
    #     l=2, rc=4.6875 Bohr: 3d-sz confined orbital
    #     l=0, rc=4.9688 Bohr: 4s-dz split-valence wave
    #     l=1, rc=2.0781 Bohr: 3p-dz split-valence wave
    #     l=1, rc=7.5469 Bohr: 4p-dz split-valence wave
    #     l=2, rc=2.9375 Bohr: 3d-dz split-valence wave
    #     l=1, rc=8.5156 Bohr: p-type Gaussian polarization
    #   Number of RI-basis functions 0

  Mo:
    name: Molybdenum
    id: ac24daaf086600a00ce6d19a74574df1
    Z: 42.0
    valence: 14
    core: 28
    charge: 0.0
    file: /home/mikei/.pyenv/versions/cemea-env/lib/python3.10/site-packages/gpaw_data/setups/Mo.LDA.gz
    compensation charges: {type: gauss,
                           rc: 0.38,
                           lmax: 2}
    cutoffs: {filter: 2.16,
              core: 1.42}
    projectors:
      #              energy  rcut
      - 4s(2.00)   -64.384   1.238
      - 5s(1.00)    -4.319   1.238
      - 4p(6.00)   -38.595   1.296
      - 5p(0.00)    -1.161   1.296
      - 4d(5.00)    -3.933   1.296
      -  d          23.278   1.296
  
    # LCAO basis set for Mo:
    #   Name: dzp
    #   File: /home/mikei/.pyenv/versions/cemea-env/lib/python3.10/site-packages/gpaw_data/setups/Mo.dzp.basis.gz
    #   Number of radial functions: 11
    #   Number of spherical harmonics: 29
    #     l=0, rc=3.5469 Bohr: 4s-sz confined orbital
    #     l=0, rc=10.0469 Bohr: 5s-sz confined orbital
    #     l=1, rc=4.0781 Bohr: 4p-sz confined orbital
    #     l=1, rc=14.0938 Bohr: 5p-sz confined orbital
    #     l=2, rc=7.2031 Bohr: 4d-sz confined orbital
    #     l=0, rc=2.1250 Bohr: 4s-dz split-valence wave
    #     l=0, rc=6.1250 Bohr: 5s-dz split-valence wave
    #     l=1, rc=2.5469 Bohr: 4p-dz split-valence wave
    #     l=1, rc=8.7656 Bohr: 5p-dz split-valence wave
    #     l=2, rc=4.2344 Bohr: 4d-dz split-valence wave
    #     l=1, rc=10.0469 Bohr: p-type Gaussian polarization
    #   Number of RI-basis functions 0

  C:
    name: Carbon
    id: d60576a1f549371a163e72552ca58787
    Z: 6.0
    valence: 4
    core: 2
    charge: 0.0
    file: /home/mikei/.pyenv/versions/cemea-env/lib/python3.10/site-packages/gpaw_data/setups/C.LDA.gz
    compensation charges: {type: gauss,
                           rc: 0.20,
                           lmax: 2}
    cutoffs: {filter: 1.14,
              core: 1.14}
    projectors:
      #              energy  rcut
      - 2s(2.00)   -13.639   0.635
      - 2p(2.00)    -5.414   0.635
      -  s          13.573   0.635
      -  p          21.797   0.635
      -  d           0.000   0.635
  
    # LCAO basis set for C:
    #   Name: dzp
    #   File: /home/mikei/.pyenv/versions/cemea-env/lib/python3.10/site-packages/gpaw_data/setups/C.dzp.basis.gz
    #   Number of radial functions: 5
    #   Number of spherical harmonics: 13
    #     l=0, rc=5.5469 Bohr: 2s-sz confined orbital
    #     l=1, rc=6.6719 Bohr: 2p-sz confined orbital
    #     l=0, rc=3.0312 Bohr: 2s-dz split-valence wave
    #     l=1, rc=3.7500 Bohr: 2p-dz split-valence wave
    #     l=2, rc=6.6719 Bohr: d-type Gaussian polarization
    #   Number of RI-basis functions 0

  Ir:
    name: Iridium
    id: ca472fc5a58bba06e8299391bae24b72
    Z: 77.0
    valence: 15
    core: 62
    charge: 0.0
    file: /home/mikei/.pyenv/versions/cemea-env/lib/python3.10/site-packages/gpaw_data/setups/Ir.LDA.gz
    compensation charges: {type: gauss,
                           rc: 0.40,
                           lmax: 2}
    cutoffs: {filter: 2.40,
              core: 2.36}
    projectors:
      #              energy  rcut
      - 6s(2.00)    -6.559   1.296
      - 5p(6.00)   -54.966   1.328
      - 6p(0.00)    -1.355   1.328
      - 5d(7.00)    -7.377   1.286
      -  s          20.652   1.296
      -  d          19.835   1.286
  
    # LCAO basis set for Ir:
    #   Name: dzp
    #   File: /home/mikei/.pyenv/versions/cemea-env/lib/python3.10/site-packages/gpaw_data/setups/Ir.dzp.basis.gz
    #   Number of radial functions: 9
    #   Number of spherical harmonics: 27
    #     l=0, rc=8.4062 Bohr: 6s-sz confined orbital
    #     l=1, rc=3.6406 Bohr: 5p-sz confined orbital
    #     l=1, rc=12.7031 Bohr: 6p-sz confined orbital
    #     l=2, rc=6.0469 Bohr: 5d-sz confined orbital
    #     l=0, rc=4.9844 Bohr: 6s-dz split-valence wave
    #     l=1, rc=2.4062 Bohr: 5p-dz split-valence wave
    #     l=1, rc=7.7969 Bohr: 6p-dz split-valence wave
    #     l=2, rc=3.5938 Bohr: 5d-dz split-valence wave
    #     l=1, rc=8.4062 Bohr: p-type Gaussian polarization
    #   Number of RI-basis functions 0

  H:
    name: Hydrogen
    id: 4766778ce56282eaa64abeb28b7c1de3
    Z: 1.0
    valence: 1
    core: 0
    charge: 0.0
    file: /home/mikei/.pyenv/versions/cemea-env/lib/python3.10/site-packages/gpaw_data/setups/H.LDA.gz
    compensation charges: {type: gauss,
                           rc: 0.15,
                           lmax: 2}
    cutoffs: {filter: 0.85,
              core: 0.53}
    projectors:
      #              energy  rcut
      - 1s(1.00)    -6.353   0.476
      -  s          20.858   0.476
      -  p           0.000   0.476
  
    # LCAO basis set for H:
    #   Name: dzp
    #   File: /home/mikei/.pyenv/versions/cemea-env/lib/python3.10/site-packages/gpaw_data/setups/H.dzp.basis.gz
    #   Number of radial functions: 3
    #   Number of spherical harmonics: 5
    #     l=0, rc=6.4219 Bohr: 1s-sz confined orbital
    #     l=0, rc=3.6094 Bohr: 1s-dz split-valence wave
    #     l=1, rc=6.4219 Bohr: p-type Gaussian polarization
    #   Number of RI-basis functions 0

Reference energy: -3339491.770649  # eV

Spin-paired calculation

Convergence criteria:
 Maximum [total energy] change in last 3 cyles: 1e-05 eV / valence electron
 Maximum integral of absolute [dens]ity change: 0.0001 electrons / valence electron
 Maximum integral of absolute [eigenst]ate change: 1e-05 eV^2 / valence electron
 Maximum number of scf [iter]ations: 333
 (Square brackets indicate name in SCF output, whereas a 'c' in
 the SCF output indicates the quantity has converged.)

Symmetries present (total): 1

  ( 1  0  0)
  ( 0  1  0)
  ( 0  0  1)

16 k-points: 4 x 4 x 1 Monkhorst-Pack grid
8 k-points in the irreducible part of the Brillouin zone
       k-points in crystal coordinates                weights
   0:     0.12500000   -0.37500000    0.00000000          2/16
   1:     0.12500000   -0.12500000    0.00000000          2/16
   2:     0.12500000    0.12500000    0.00000000          2/16
   3:     0.12500000    0.37500000    0.00000000          2/16
   4:     0.37500000   -0.37500000    0.00000000          2/16
   5:     0.37500000   -0.12500000    0.00000000          2/16
   6:     0.37500000    0.12500000    0.00000000          2/16
   7:     0.37500000    0.37500000    0.00000000          2/16

Wave functions: LCAO
  Diagonalizer: Serial LAPACK
  Atomic Correction: dense with blas
  Data-type: complex
 

Occupation numbers: Fermi-Dirac:
  width: 0.1000  # eV
 

Eigensolver
   LCAO using direct dense diagonalizer 

Densities:
  Coarse grid: 36*36*128 grid
  Fine grid: 72*72*256 grid
  Total Charge: 0.000000 

Density mixing:
  Method: separate
  Backend: pulay
  Linear mixing parameter: 0.05
  old densities: 5
  Damping of long wavelength oscillations: 50 

Hamiltonian:
  XC and Coulomb potentials evaluated on a 72*72*256 grid
  Using the LDA Exchange-Correlation functional
  Interpolation: tri-quintic (5. degree polynomial)
  Poisson solver: FastPoissonSolver using
    Stencil: 6*3+1=19 point O(h^6) finite-difference Laplacian
    FFT axes: [np.int64(0), np.int64(1), np.int64(2)]
    FST axes: []
 

Memory estimate:
  Process memory now: 4595.48 MiB
  Calculator: 1071.45 MiB
    Density: 232.25 MiB
      Arrays: 32.91 MiB
      Localized functions: 186.69 MiB
      Mixer: 12.66 MiB
    Hamiltonian: 35.44 MiB
      Arrays: 21.52 MiB
      XC: 0.00 MiB
      Poisson: 0.00 MiB
      vbar: 13.92 MiB
    Wavefunctions: 803.76 MiB
      C [qnM]: 71.43 MiB
      S, T [2 x qmm]: 422.17 MiB
      P [aqMi]: 8.88 MiB
      BasisFunctions: 301.27 MiB
      Eigensolver: 0.00 MiB

Total number of cores used: 1

Number of atoms: 51
Number of atomic orbitals: 1315
Number of bands in calculation: 445
Number of valence electrons: 735
Bands to converge: occupied

... initialized

Initializing position-dependent things.

Density initialized from atomic densities
      .-----------------.  
     /|                 |  
    / |                 |  
   /  |                 |  
  /   |                 |  
 *    |                 |  
 |    |                 |  
 |    |                 |  
 |    |                 |  
 |    |    H            |  
 |    | Ir    Ir        |  
 |    |   Mo        Mo  |  
 |    |                 |  
 |    |Mo C      Mo C   |  
 |  Mo|       Mo        |  
 |    |                 |  
 |    |C         C      |  
 Mo Ni|   NMo   Ni      |  
 | Ni | NNi   NNi   Ni  |  
 |    |                 |  
 Ni   NNi   NNi   Ni    |  
 |  NNi   NNi   NNi     |  
 | Ni | NNi   NNi   Ni  |  
 |    |                 |  
 Ni   NNi   NNi   Ni    |  
 |   Ni    Ni    Ni     |  
 |    |                 |  
 |    |                 |  
 |    |                 |  
 |    |                 |  
 |    |                 |  
 |    .-----------------.  
 |   /                 /   
 |  /                 /    
 | /                 /     
 |/                 /      
 *-----------------*       

Atomic positions and initial magnetic moments

Positions:
   0 Ni     1.244508    1.244508    8.000000    ( 0.0000,  0.0000,  0.0000)
   1 Ni     3.733524    1.244508    8.000000    ( 0.0000,  0.0000,  0.0000)
   2 Ni     6.222540    1.244508    8.000000    ( 0.0000,  0.0000,  0.0000)
   3 Ni     1.244508    3.733524    8.000000    ( 0.0000,  0.0000,  0.0000)
   4 Ni     3.733524    3.733524    8.000000    ( 0.0000,  0.0000,  0.0000)
   5 Ni     6.222540    3.733524    8.000000    ( 0.0000,  0.0000,  0.0000)
   6 Ni     1.244508    6.222540    8.000000    ( 0.0000,  0.0000,  0.0000)
   7 Ni     3.733524    6.222540    8.000000    ( 0.0000,  0.0000,  0.0000)
   8 Ni     6.222540    6.222540    8.000000    ( 0.0000,  0.0000,  0.0000)
   9 Ni     0.000000    0.000000    9.760000    ( 0.0000,  0.0000,  0.0000)
  10 Ni     2.489016    0.000000    9.760000    ( 0.0000,  0.0000,  0.0000)
  11 Ni     4.978032    0.000000    9.760000    ( 0.0000,  0.0000,  0.0000)
  12 Ni     0.000000    2.489016    9.760000    ( 0.0000,  0.0000,  0.0000)
  13 Ni     2.489016    2.489016    9.760000    ( 0.0000,  0.0000,  0.0000)
  14 Ni     4.978032    2.489016    9.760000    ( 0.0000,  0.0000,  0.0000)
  15 Ni     0.000000    4.978032    9.760000    ( 0.0000,  0.0000,  0.0000)
  16 Ni     2.489016    4.978032    9.760000    ( 0.0000,  0.0000,  0.0000)
  17 Ni     4.978032    4.978032    9.760000    ( 0.0000,  0.0000,  0.0000)
  18 Ni     1.244508    1.244508   11.520000    ( 0.0000,  0.0000,  0.0000)
  19 Ni     3.733524    1.244508   11.520000    ( 0.0000,  0.0000,  0.0000)
  20 Ni     6.222540    1.244508   11.520000    ( 0.0000,  0.0000,  0.0000)
  21 Ni     1.244508    3.733524   11.520000    ( 0.0000,  0.0000,  0.0000)
  22 Ni     3.733524    3.733524   11.520000    ( 0.0000,  0.0000,  0.0000)
  23 Ni     6.222540    3.733524   11.520000    ( 0.0000,  0.0000,  0.0000)
  24 Ni     1.244508    6.222540   11.520000    ( 0.0000,  0.0000,  0.0000)
  25 Ni     3.733524    6.222540   11.520000    ( 0.0000,  0.0000,  0.0000)
  26 Ni     6.222540    6.222540   11.520000    ( 0.0000,  0.0000,  0.0000)
  27 Ni     0.000000    0.000000   13.280000    ( 0.0000,  0.0000,  0.0000)
  28 Ni     2.489016    0.000000   13.280000    ( 0.0000,  0.0000,  0.0000)
  29 Ni     4.978032    0.000000   13.280000    ( 0.0000,  0.0000,  0.0000)
  30 Ni     0.000000    2.489016   13.280000    ( 0.0000,  0.0000,  0.0000)
  31 Ni     2.489016    2.489016   13.280000    ( 0.0000,  0.0000,  0.0000)
  32 Ni     4.978032    2.489016   13.280000    ( 0.0000,  0.0000,  0.0000)
  33 Ni     0.000000    4.978032   13.280000    ( 0.0000,  0.0000,  0.0000)
  34 Ni     2.489016    4.978032   13.280000    ( 0.0000,  0.0000,  0.0000)
  35 Ni     4.978032    4.978032   13.280000    ( 0.0000,  0.0000,  0.0000)
  36 Mo     0.000000    0.000000   15.480000    ( 0.0000,  0.0000,  0.0000)
  37 Mo     2.060000    2.060000   17.540000    ( 0.0000,  0.0000,  0.0000)
  38 C      2.060000    2.060000   15.480000    ( 0.0000,  0.0000,  0.0000)
  39 Mo     0.000000    4.120000   15.480000    ( 0.0000,  0.0000,  0.0000)
  40 Mo     2.060000    6.180000   17.540000    ( 0.0000,  0.0000,  0.0000)
  41 C      2.060000    6.180000   15.480000    ( 0.0000,  0.0000,  0.0000)
  42 Mo     4.120000    0.000000   15.480000    ( 0.0000,  0.0000,  0.0000)
  43 Mo     6.180000    2.060000   17.540000    ( 0.0000,  0.0000,  0.0000)
  44 C      6.180000    2.060000   15.480000    ( 0.0000,  0.0000,  0.0000)
  45 Mo     4.120000    4.120000   15.480000    ( 0.0000,  0.0000,  0.0000)
  46 Mo     6.180000    6.180000   17.540000    ( 0.0000,  0.0000,  0.0000)
  47 C      6.180000    6.180000   15.480000    ( 0.0000,  0.0000,  0.0000)
  48 Ir     1.991786    3.191786   19.340000    ( 0.0000,  0.0000,  0.0000)
  49 Ir     4.391786    3.191786   19.340000    ( 0.0000,  0.0000,  0.0000)
  50 H      3.191786    3.191786   20.840000    ( 0.0000,  0.0000,  0.0000)

Unit cell:
           periodic     x           y           z      points  spacing
  1. axis:    yes    7.467048    0.000000    0.000000    36     0.2074
  2. axis:    yes    0.000000    7.467048    0.000000    36     0.2074
  3. axis:    yes    0.000000    0.000000   25.540000   128     0.1995

  Lengths:   7.467048   7.467048  25.540000
  Angles:   90.000000  90.000000  90.000000

Effective grid spacing dv^(1/3) = 0.2048

     iter     time        total  log10-change:
                         energy   eigst   dens
iter:   1 06:32:43 -1231.358603        c
iter:   2 06:34:15 -3722.990826        c -0.90
iter:   3 06:35:47  -821.512284        c -0.46
iter:   4 06:37:18  -541.110946        c -1.01
iter:   5 06:38:50  -456.916017        c -1.29
iter:   6 06:40:22  -418.444816        c -1.40
iter:   7 06:41:54  -463.808077        c -1.50
iter:   8 06:43:26  -433.223163        c -1.30
iter:   9 06:44:59  -510.692548        c -1.53
iter:  10 06:46:31  -463.356680        c -1.33
iter:  11 06:48:09  -493.750571        c -1.49
iter:  12 06:49:43  -473.562647        c -1.46
iter:  13 06:51:14  -495.760557        c -1.49
iter:  14 06:52:45  -438.258024        c -1.20
iter:  15 06:54:16  -409.807648        c -1.55
iter:  16 06:55:48  -403.742991        c -1.64
iter:  17 06:57:24  -418.976243        c -1.67
iter:  18 06:58:55  -398.050901        c -1.72
iter:  19 07:00:27  -396.481195        c -1.76
iter:  20 07:01:58  -399.219338        c -1.82
iter:  21 07:03:30  -408.615512        c -1.79
iter:  22 07:05:03  -400.009686        c -1.79
iter:  23 07:06:36  -399.943541        c -1.91
iter:  24 07:08:07  -399.934297        c -1.86
iter:  25 07:09:39  -402.358250        c -1.94
iter:  26 07:11:10  -413.725525        c -1.81
iter:  27 07:12:45  -398.739377        c -1.67
iter:  28 07:14:19  -400.874116        c -2.00
iter:  29 07:15:50  -403.183691        c -1.81
iter:  30 07:17:22  -404.399444        c -1.81
iter:  31 07:18:56  -400.194102        c -1.83
iter:  32 07:20:27  -432.132624        c -1.89
iter:  33 07:22:02  -397.601256        c -1.48
iter:  34 07:23:34  -398.019240        c -1.98
iter:  35 07:25:10  -396.379063        c -2.08
iter:  36 07:26:42  -394.615359        c -2.14
iter:  37 07:28:13  -394.898848        c -2.45
iter:  38 07:29:45  -395.214623        c -2.28
iter:  39 07:31:21  -394.802566        c -2.17
iter:  40 07:32:52  -394.135076        c -2.33
iter:  41 07:34:23  -394.560940        c -2.67
iter:  42 07:35:57  -394.325020        c -2.43
iter:  43 07:37:31  -394.104434        c -2.56
iter:  44 07:39:02  -394.244178        c -2.97
iter:  45 07:40:37  -394.188110        c -2.65
iter:  46 07:42:14  -394.089426        c -2.82
iter:  47 07:43:45  -394.053491        c -2.90
iter:  48 07:45:19  -394.059834        c -3.17
iter:  49 07:46:55  -394.038984        c -3.16
iter:  50 07:48:27  -394.027786        c -3.31
iter:  51 07:49:58  -394.032167        c -3.21
iter:  52 07:51:33  -394.036135        c -3.35
iter:  53 07:53:05  -394.031420c       c -3.42
iter:  54 07:54:36  -394.027101        c -3.23
iter:  55 07:56:09  -394.026585c       c -3.37
iter:  56 07:57:40  -394.043377        c -3.38
iter:  57 07:59:14  -394.034265        c -3.27
iter:  58 08:00:49  -394.026414        c -3.53
iter:  59 08:02:21  -394.028479        c -3.24
iter:  60 08:03:52  -394.025643c       c -3.55
iter:  61 08:05:29  -394.028236c       c -3.43
iter:  62 08:07:06  -394.028796c       c -3.59
iter:  63 08:08:40  -394.024006c       c -3.45
iter:  64 08:10:15  -394.039998        c -3.46
iter:  65 08:11:46  -394.028361        c -3.35
iter:  66 08:13:21  -394.033787        c -3.44
iter:  67 08:14:54  -394.026090        c -3.56
iter:  68 08:16:29  -394.024741        c -3.68
iter:  69 08:18:04  -394.026578c       c -3.55
iter:  70 08:19:37  -394.025024c       c -3.75
iter:  71 08:21:16  -394.026634c       c -3.57
iter:  72 08:22:48  -394.022916c       c -3.76
iter:  73 08:24:19  -394.026822c       c -3.54
iter:  74 08:25:51  -394.035815        c -3.71
iter:  75 08:27:28  -394.025260        c -3.49
iter:  76 08:29:05  -394.025047        c -3.82
iter:  77 08:30:39  -394.024885c       c -3.66
iter:  78 08:32:13  -394.025448c       c -3.83
iter:  79 08:33:45  -394.025049c       c -3.84
iter:  80 08:35:19  -394.022407c       c -3.83
iter:  81 08:36:51  -394.025903c       c -3.56
iter:  82 08:38:22  -394.033864        c -3.86
iter:  83 08:39:54  -394.025175        c -3.56
iter:  84 08:41:25  -394.024765        c -3.73
iter:  85 08:42:57  -394.024448c       c -3.90
iter:  86 08:44:33  -394.025764c       c -3.83
iter:  87 08:46:04  -394.024173c       c -3.91
iter:  88 08:47:35  -394.022771c       c -3.85
iter:  89 08:49:10  -394.030989        c -3.65
iter:  90 08:50:42  -394.024900        c -3.69
iter:  91 08:52:13  -394.027037c       c -3.84
iter:  92 08:53:46  -394.024882c       c -4.00
iter:  93 08:55:21  -394.024855c       c -3.97
iter:  94 08:56:55  -394.025542c       c -3.96
iter:  95 08:58:30  -394.023273c       c -4.08c

Converged after 95 iterations.

Dipole moment: (-7.972729, -7.357181, 0.185266) |e|*Ang

Energy contributions relative to reference atoms: (reference = -3339491.770649)

Kinetic:        +50.761551
Potential:      -39.905157
External:        +0.000000
XC:            -401.638596
Entropy (-ST):   -3.853560
Local:           -1.314291
SIC:             +0.000000
--------------------------
Free energy:   -395.950053
Extrapolated:  -394.023273

Showing only first 2 kpts
 Kpt  Band  Eigenvalues  Occupancy
  0   365      0.80734    1.23744
  0   366      0.81412    1.20521
  0   367      0.84436    1.05693
  0   368      0.84819    1.03783

  1   365      0.79214    1.30775
  1   366      0.80177    1.26354
  1   367      0.80693    1.23937
  1   368      0.82443    1.15537


Fermi level: 0.85576

No gap
No difference between direct/indirect transitions
Timing:                              incl.     excl.
-----------------------------------------------------------
Basic WFS set positions:             0.000     0.000   0.0% |
Basis functions set positions:       0.183     0.183   0.0% |
LCAO WFS Initialize:                 0.418     0.095   0.0% |
 Hamiltonian:                        0.323     0.000   0.0% |
  Atomic:                            0.163     0.002   0.0% |
   XC Correction:                    0.161     0.161   0.0% |
  Calculate atomic Hamiltonians:     0.027     0.027   0.0% |
  Communicate:                       0.000     0.000   0.0% |
  Hartree integrate/restrict:        0.006     0.006   0.0% |
  Initialize Hamiltonian:            0.000     0.000   0.0% |
  Poisson:                           0.078     0.006   0.0% |
   Communicate from 1D:              0.008     0.008   0.0% |
   Communicate from 2D:              0.006     0.006   0.0% |
   Communicate to 1D:                0.011     0.011   0.0% |
   Communicate to 2D:                0.011     0.011   0.0% |
   FFT 1D:                           0.007     0.007   0.0% |
   FFT 2D:                           0.030     0.030   0.0% |
  XC 3D grid:                        0.046     0.046   0.0% |
  vbar:                              0.002     0.002   0.0% |
P tci:                               5.563     5.563   0.1% |
SCF-cycle:                        8768.564     0.262   0.0% |
 Density:                         6771.082     0.002   0.0% |
  Atomic density matrices:           1.861     1.861   0.0% |
  Mix:                               9.934     9.934   0.1% |
  Multipole moments:                 0.027     0.027   0.0% |
  Normalize:                         0.012     0.012   0.0% |
  Pseudo density:                 6759.247     0.038   0.0% |
   Calculate density matrix:        15.296    15.296   0.2% |
   Construct density:             6743.911  6743.911  76.8% |------------------------------|
   Symmetrize density:               0.002     0.002   0.0% |
 Hamiltonian:                       31.342     0.004   0.0% |
  Atomic:                           15.243     0.169   0.0% |
   XC Correction:                   15.073    15.073   0.2% |
  Calculate atomic Hamiltonians:     2.484     2.484   0.0% |
  Communicate:                       0.000     0.000   0.0% |
  Hartree integrate/restrict:        0.592     0.592   0.0% |
  Poisson:                           6.777     0.530   0.0% |
   Communicate from 1D:              0.765     0.765   0.0% |
   Communicate from 2D:              0.568     0.568   0.0% |
   Communicate to 1D:                0.685     0.685   0.0% |
   Communicate to 2D:                0.908     0.908   0.0% |
   FFT 1D:                           0.757     0.757   0.0% |
   FFT 2D:                           2.564     2.564   0.0% |
  XC 3D grid:                        5.574     5.574   0.1% |
  vbar:                              0.668     0.668   0.0% |
 LCAO eigensolver:                1965.878     2.884   0.0% |
  Calculate projections:            80.521    80.521   0.9% |
  DenseAtomicCorrection:           295.838   295.838   3.4% ||
  Distribute overlap matrix:         6.401     6.401   0.1% |
  Orbital Layouts:                 420.672   420.672   4.8% |-|
  Potential matrix:               1036.439  1036.439  11.8% |----|
  Sum over cells:                  123.123   123.123   1.4% ||
ST tci:                              2.044     2.044   0.0% |
Set symmetry:                        0.000     0.000   0.0% |
TCI: Evaluate splines:               0.670     0.670   0.0% |
mktci:                               0.027     0.027   0.0% |
Other:                               4.335     4.335   0.0% |
-----------------------------------------------------------
Total:                                      8781.804 100.0%

Memory usage: 4.49 GiB
Date: Sun Feb 22 08:58:30 2026
