
  ___ ___ ___ _ _ _  
 |   |   |_  | | | | 
 | | | | | . | | | | 
 |__ |  _|___|_____|  25.7.0
 |___|_|             

User:   mikei@Z790-AORUS-ELITE-AX
Date:   Mon Feb 23 12:15:57 2026
Arch:   x86_64
Pid:    89048
CWD:    /home/mikei/Dokumenty/code/cemea/ocx
Python: 3.10.16
gpaw:   /home/mikei/.pyenv/versions/cemea-env/lib/python3.10/site-packages/gpaw
_gpaw:  /home/mikei/.pyenv/versions/cemea-env/lib/python3.10/site-packages/
        _gpaw.cpython-310-x86_64-linux-gnu.so
ase:    /home/mikei/.pyenv/versions/cemea-env/lib/python3.10/site-packages/ase (version 3.27.0)
numpy:  /home/mikei/.pyenv/versions/cemea-env/lib/python3.10/site-packages/numpy (version 2.2.6)
scipy:  /home/mikei/.pyenv/versions/cemea-env/lib/python3.10/site-packages/scipy (version 1.15.3)
libxc:  2.x.y
units:  Angstrom and eV
cores: 1
OpenMP: False
OMP_NUM_THREADS: 1

Input parameters:
  basis: dzp
  convergence: {density: 0.0001,
                eigenstates: 1e-05,
                energy: 1e-05}
  kpts: [4 4 1]
  mode: lcao

System changes: positions, numbers, cell, pbc, initial_charges, initial_magmoms 

Initialize ...

species:
  Ni:
    name: Nickel
    id: 1802175e8de9ea26d9f4394ec1a7d564
    Z: 28.0
    valence: 16
    core: 12
    charge: 0.0
    file: /home/mikei/.pyenv/versions/cemea-env/lib/python3.10/site-packages/gpaw_data/setups/Ni.LDA.gz
    compensation charges: {type: gauss,
                           rc: 0.36,
                           lmax: 2}
    cutoffs: {filter: 2.14,
              core: 1.98}
    projectors:
      #              energy  rcut
      - 4s(2.00)    -5.858   1.164
      - 3p(6.00)   -71.266   1.207
      - 4p(0.00)    -1.338   1.207
      - 3d(8.00)    -9.141   1.138
      -  s          21.353   1.164
      -  d          18.071   1.138
  
    # LCAO basis set for Ni:
    #   Name: dzp
    #   File: /home/mikei/.pyenv/versions/cemea-env/lib/python3.10/site-packages/gpaw_data/setups/Ni.dzp.basis.gz
    #   Number of radial functions: 9
    #   Number of spherical harmonics: 27
    #     l=0, rc=8.5156 Bohr: 4s-sz confined orbital
    #     l=1, rc=2.9375 Bohr: 3p-sz confined orbital
    #     l=1, rc=12.4062 Bohr: 4p-sz confined orbital
    #     l=2, rc=4.6875 Bohr: 3d-sz confined orbital
    #     l=0, rc=4.9688 Bohr: 4s-dz split-valence wave
    #     l=1, rc=2.0781 Bohr: 3p-dz split-valence wave
    #     l=1, rc=7.5469 Bohr: 4p-dz split-valence wave
    #     l=2, rc=2.9375 Bohr: 3d-dz split-valence wave
    #     l=1, rc=8.5156 Bohr: p-type Gaussian polarization
    #   Number of RI-basis functions 0

  Mo:
    name: Molybdenum
    id: ac24daaf086600a00ce6d19a74574df1
    Z: 42.0
    valence: 14
    core: 28
    charge: 0.0
    file: /home/mikei/.pyenv/versions/cemea-env/lib/python3.10/site-packages/gpaw_data/setups/Mo.LDA.gz
    compensation charges: {type: gauss,
                           rc: 0.38,
                           lmax: 2}
    cutoffs: {filter: 2.16,
              core: 1.42}
    projectors:
      #              energy  rcut
      - 4s(2.00)   -64.384   1.238
      - 5s(1.00)    -4.319   1.238
      - 4p(6.00)   -38.595   1.296
      - 5p(0.00)    -1.161   1.296
      - 4d(5.00)    -3.933   1.296
      -  d          23.278   1.296
  
    # LCAO basis set for Mo:
    #   Name: dzp
    #   File: /home/mikei/.pyenv/versions/cemea-env/lib/python3.10/site-packages/gpaw_data/setups/Mo.dzp.basis.gz
    #   Number of radial functions: 11
    #   Number of spherical harmonics: 29
    #     l=0, rc=3.5469 Bohr: 4s-sz confined orbital
    #     l=0, rc=10.0469 Bohr: 5s-sz confined orbital
    #     l=1, rc=4.0781 Bohr: 4p-sz confined orbital
    #     l=1, rc=14.0938 Bohr: 5p-sz confined orbital
    #     l=2, rc=7.2031 Bohr: 4d-sz confined orbital
    #     l=0, rc=2.1250 Bohr: 4s-dz split-valence wave
    #     l=0, rc=6.1250 Bohr: 5s-dz split-valence wave
    #     l=1, rc=2.5469 Bohr: 4p-dz split-valence wave
    #     l=1, rc=8.7656 Bohr: 5p-dz split-valence wave
    #     l=2, rc=4.2344 Bohr: 4d-dz split-valence wave
    #     l=1, rc=10.0469 Bohr: p-type Gaussian polarization
    #   Number of RI-basis functions 0

  C:
    name: Carbon
    id: d60576a1f549371a163e72552ca58787
    Z: 6.0
    valence: 4
    core: 2
    charge: 0.0
    file: /home/mikei/.pyenv/versions/cemea-env/lib/python3.10/site-packages/gpaw_data/setups/C.LDA.gz
    compensation charges: {type: gauss,
                           rc: 0.20,
                           lmax: 2}
    cutoffs: {filter: 1.14,
              core: 1.14}
    projectors:
      #              energy  rcut
      - 2s(2.00)   -13.639   0.635
      - 2p(2.00)    -5.414   0.635
      -  s          13.573   0.635
      -  p          21.797   0.635
      -  d           0.000   0.635
  
    # LCAO basis set for C:
    #   Name: dzp
    #   File: /home/mikei/.pyenv/versions/cemea-env/lib/python3.10/site-packages/gpaw_data/setups/C.dzp.basis.gz
    #   Number of radial functions: 5
    #   Number of spherical harmonics: 13
    #     l=0, rc=5.5469 Bohr: 2s-sz confined orbital
    #     l=1, rc=6.6719 Bohr: 2p-sz confined orbital
    #     l=0, rc=3.0312 Bohr: 2s-dz split-valence wave
    #     l=1, rc=3.7500 Bohr: 2p-dz split-valence wave
    #     l=2, rc=6.6719 Bohr: d-type Gaussian polarization
    #   Number of RI-basis functions 0

  Pd:
    name: Palladium
    id: e532e18c0482708fc2e61045fa7bdb18
    Z: 46.0
    valence: 16
    core: 30
    charge: 0.0
    file: /home/mikei/.pyenv/versions/cemea-env/lib/python3.10/site-packages/gpaw_data/setups/Pd.LDA.gz
    compensation charges: {type: gauss,
                           rc: 0.38,
                           lmax: 2}
    cutoffs: {filter: 2.38,
              core: 2.28}
    projectors:
      #              energy  rcut
      - 5s(0.00)    -3.604   1.228
      - 4p(6.00)   -51.371   1.360
      - 5p(0.00)    -0.356   1.360
      - 4d(10.00)    -4.308   1.228
      -  s          23.607   1.228
      -  d          22.904   1.228
  
    # LCAO basis set for Pd:
    #   Name: dzp
    #   File: /home/mikei/.pyenv/versions/cemea-env/lib/python3.10/site-packages/gpaw_data/setups/Pd.dzp.basis.gz
    #   Number of radial functions: 9
    #   Number of spherical harmonics: 27
    #     l=0, rc=10.0312 Bohr: 5s-sz confined orbital
    #     l=1, rc=3.5312 Bohr: 4p-sz confined orbital
    #     l=1, rc=16.0000 Bohr: 5p-sz confined orbital
    #     l=2, rc=6.2031 Bohr: 4d-sz confined orbital
    #     l=0, rc=6.0156 Bohr: 5s-dz split-valence wave
    #     l=1, rc=2.4062 Bohr: 4p-dz split-valence wave
    #     l=1, rc=9.9375 Bohr: 5p-dz split-valence wave
    #     l=2, rc=3.6719 Bohr: 4d-dz split-valence wave
    #     l=1, rc=10.0312 Bohr: p-type Gaussian polarization
    #   Number of RI-basis functions 0

Reference energy: -2919447.478158  # eV

Spin-paired calculation

Convergence criteria:
 Maximum [total energy] change in last 3 cyles: 1e-05 eV / valence electron
 Maximum integral of absolute [dens]ity change: 0.0001 electrons / valence electron
 Maximum integral of absolute [eigenst]ate change: 1e-05 eV^2 / valence electron
 Maximum number of scf [iter]ations: 333
 (Square brackets indicate name in SCF output, whereas a 'c' in
 the SCF output indicates the quantity has converged.)

Symmetries present (total): 2

  ( 1  0  0)  ( 0  1  0)
  ( 0  1  0)  ( 1  0  0)
  ( 0  0  1)  ( 0  0  1)

16 k-points: 4 x 4 x 1 Monkhorst-Pack grid
6 k-points in the irreducible part of the Brillouin zone
       k-points in crystal coordinates                weights
   0:     0.12500000   -0.12500000    0.00000000          2/16
   1:     0.12500000    0.12500000    0.00000000          2/16
   2:     0.37500000   -0.37500000    0.00000000          2/16
   3:     0.37500000   -0.12500000    0.00000000          4/16
   4:     0.37500000    0.12500000    0.00000000          4/16
   5:     0.37500000    0.37500000    0.00000000          2/16

Wave functions: LCAO
  Diagonalizer: Serial LAPACK
  Atomic Correction: dense with blas
  Data-type: complex
 

Occupation numbers: Fermi-Dirac:
  width: 0.1000  # eV
 

Eigensolver
   LCAO using direct dense diagonalizer 

Densities:
  Coarse grid: 36*36*128 grid
  Fine grid: 72*72*256 grid
  Total Charge: 0.000000 

Density mixing:
  Method: separate
  Backend: pulay
  Linear mixing parameter: 0.05
  old densities: 5
  Damping of long wavelength oscillations: 50 

Hamiltonian:
  XC and Coulomb potentials evaluated on a 72*72*256 grid
  Using the LDA Exchange-Correlation functional
  Interpolation: tri-quintic (5. degree polynomial)
  Poisson solver: FastPoissonSolver using
    Stencil: 6*3+1=19 point O(h^6) finite-difference Laplacian
    FFT axes: [np.int64(0), np.int64(1), np.int64(2)]
    FST axes: []
 

Memory estimate:
  Process memory now: 4595.48 MiB
  Calculator: 1020.15 MiB
    Density: 243.62 MiB
      Arrays: 32.91 MiB
      Localized functions: 198.06 MiB
      Mixer: 12.66 MiB
    Hamiltonian: 36.20 MiB
      Arrays: 21.52 MiB
      XC: 0.00 MiB
      Poisson: 0.00 MiB
      vbar: 14.69 MiB
    Wavefunctions: 740.32 MiB
      C [qnM]: 58.07 MiB
      S, T [2 x qmm]: 340.67 MiB
      P [aqMi]: 7.15 MiB
      BasisFunctions: 334.43 MiB
      Eigensolver: 0.00 MiB

Total number of cores used: 1

Number of atoms: 52
Number of atomic orbitals: 1364
Number of bands in calculation: 465
Number of valence electrons: 768
Bands to converge: occupied

... initialized

Initializing position-dependent things.

Density initialized from atomic densities
      .-----------------.  
     /|                 |  
    / |                 |  
   /  |                 |  
  /   |                 |  
 *    |                 |  
 |    |                 |  
 |    |                 |  
 |    |                 |  
 |    |                 |  
 |    |  Pd    Pd       |  
 |    |Pd Mo Pd     Mo  |  
 |    |                 |  
 |    |Mo C      Mo C   |  
 |  Mo|       Mo        |  
 |    |                 |  
 |    |C         C      |  
 Mo Ni|   NMo   Ni      |  
 | Ni | NNi   NNi   Ni  |  
 |    |                 |  
 Ni   NNi   NNi   Ni    |  
 |  NNi   NNi   NNi     |  
 | Ni | NNi   NNi   Ni  |  
 |    |                 |  
 Ni   NNi   NNi   Ni    |  
 |   Ni    Ni    Ni     |  
 |    |                 |  
 |    |                 |  
 |    |                 |  
 |    |                 |  
 |    |                 |  
 |    .-----------------.  
 |   /                 /   
 |  /                 /    
 | /                 /     
 |/                 /      
 *-----------------*       

Atomic positions and initial magnetic moments

Positions:
   0 Ni     1.244508    1.244508    8.000000    ( 0.0000,  0.0000,  0.0000)
   1 Ni     3.733524    1.244508    8.000000    ( 0.0000,  0.0000,  0.0000)
   2 Ni     6.222540    1.244508    8.000000    ( 0.0000,  0.0000,  0.0000)
   3 Ni     1.244508    3.733524    8.000000    ( 0.0000,  0.0000,  0.0000)
   4 Ni     3.733524    3.733524    8.000000    ( 0.0000,  0.0000,  0.0000)
   5 Ni     6.222540    3.733524    8.000000    ( 0.0000,  0.0000,  0.0000)
   6 Ni     1.244508    6.222540    8.000000    ( 0.0000,  0.0000,  0.0000)
   7 Ni     3.733524    6.222540    8.000000    ( 0.0000,  0.0000,  0.0000)
   8 Ni     6.222540    6.222540    8.000000    ( 0.0000,  0.0000,  0.0000)
   9 Ni     0.000000    0.000000    9.760000    ( 0.0000,  0.0000,  0.0000)
  10 Ni     2.489016    0.000000    9.760000    ( 0.0000,  0.0000,  0.0000)
  11 Ni     4.978032    0.000000    9.760000    ( 0.0000,  0.0000,  0.0000)
  12 Ni     0.000000    2.489016    9.760000    ( 0.0000,  0.0000,  0.0000)
  13 Ni     2.489016    2.489016    9.760000    ( 0.0000,  0.0000,  0.0000)
  14 Ni     4.978032    2.489016    9.760000    ( 0.0000,  0.0000,  0.0000)
  15 Ni     0.000000    4.978032    9.760000    ( 0.0000,  0.0000,  0.0000)
  16 Ni     2.489016    4.978032    9.760000    ( 0.0000,  0.0000,  0.0000)
  17 Ni     4.978032    4.978032    9.760000    ( 0.0000,  0.0000,  0.0000)
  18 Ni     1.244508    1.244508   11.520000    ( 0.0000,  0.0000,  0.0000)
  19 Ni     3.733524    1.244508   11.520000    ( 0.0000,  0.0000,  0.0000)
  20 Ni     6.222540    1.244508   11.520000    ( 0.0000,  0.0000,  0.0000)
  21 Ni     1.244508    3.733524   11.520000    ( 0.0000,  0.0000,  0.0000)
  22 Ni     3.733524    3.733524   11.520000    ( 0.0000,  0.0000,  0.0000)
  23 Ni     6.222540    3.733524   11.520000    ( 0.0000,  0.0000,  0.0000)
  24 Ni     1.244508    6.222540   11.520000    ( 0.0000,  0.0000,  0.0000)
  25 Ni     3.733524    6.222540   11.520000    ( 0.0000,  0.0000,  0.0000)
  26 Ni     6.222540    6.222540   11.520000    ( 0.0000,  0.0000,  0.0000)
  27 Ni     0.000000    0.000000   13.280000    ( 0.0000,  0.0000,  0.0000)
  28 Ni     2.489016    0.000000   13.280000    ( 0.0000,  0.0000,  0.0000)
  29 Ni     4.978032    0.000000   13.280000    ( 0.0000,  0.0000,  0.0000)
  30 Ni     0.000000    2.489016   13.280000    ( 0.0000,  0.0000,  0.0000)
  31 Ni     2.489016    2.489016   13.280000    ( 0.0000,  0.0000,  0.0000)
  32 Ni     4.978032    2.489016   13.280000    ( 0.0000,  0.0000,  0.0000)
  33 Ni     0.000000    4.978032   13.280000    ( 0.0000,  0.0000,  0.0000)
  34 Ni     2.489016    4.978032   13.280000    ( 0.0000,  0.0000,  0.0000)
  35 Ni     4.978032    4.978032   13.280000    ( 0.0000,  0.0000,  0.0000)
  36 Mo     0.000000    0.000000   15.480000    ( 0.0000,  0.0000,  0.0000)
  37 Mo     2.060000    2.060000   17.540000    ( 0.0000,  0.0000,  0.0000)
  38 C      2.060000    2.060000   15.480000    ( 0.0000,  0.0000,  0.0000)
  39 Mo     0.000000    4.120000   15.480000    ( 0.0000,  0.0000,  0.0000)
  40 Mo     2.060000    6.180000   17.540000    ( 0.0000,  0.0000,  0.0000)
  41 C      2.060000    6.180000   15.480000    ( 0.0000,  0.0000,  0.0000)
  42 Mo     4.120000    0.000000   15.480000    ( 0.0000,  0.0000,  0.0000)
  43 Mo     6.180000    2.060000   17.540000    ( 0.0000,  0.0000,  0.0000)
  44 C      6.180000    2.060000   15.480000    ( 0.0000,  0.0000,  0.0000)
  45 Mo     4.120000    4.120000   15.480000    ( 0.0000,  0.0000,  0.0000)
  46 Mo     6.180000    6.180000   17.540000    ( 0.0000,  0.0000,  0.0000)
  47 C      6.180000    6.180000   15.480000    ( 0.0000,  0.0000,  0.0000)
  48 Pd     1.991786    1.991786   19.340000    ( 0.0000,  0.0000,  0.0000)
  49 Pd     1.991786    4.391786   19.340000    ( 0.0000,  0.0000,  0.0000)
  50 Pd     4.391786    1.991786   19.340000    ( 0.0000,  0.0000,  0.0000)
  51 Pd     4.391786    4.391786   19.340000    ( 0.0000,  0.0000,  0.0000)

Unit cell:
           periodic     x           y           z      points  spacing
  1. axis:    yes    7.467048    0.000000    0.000000    36     0.2074
  2. axis:    yes    0.000000    7.467048    0.000000    36     0.2074
  3. axis:    yes    0.000000    0.000000   25.540000   128     0.1995

  Lengths:   7.467048   7.467048  25.540000
  Angles:   90.000000  90.000000  90.000000

Effective grid spacing dv^(1/3) = 0.2048

     iter     time        total  log10-change:
                         energy   eigst   dens
iter:   1 12:16:28 -1076.047566        c
iter:   2 12:17:52 -6149.466663        c -0.91
iter:   3 12:19:14  -469.701327        c -0.37
iter:   4 12:20:35  -581.654149        c -1.36
iter:   5 12:21:56  -490.737476        c -1.07
iter:   6 12:23:18  -480.191098        c -1.36
iter:   7 12:24:39  -498.730783        c -1.43
iter:   8 12:26:01  -464.136104        c -1.40
iter:   9 12:27:24  -444.329073        c -1.54
iter:  10 12:28:45  -446.840198        c -1.59
iter:  11 12:30:10  -431.036906        c -1.29
iter:  12 12:31:33  -409.429983        c -1.58
iter:  13 12:32:57  -393.821954        c -1.66
iter:  14 12:34:21  -391.014050        c -1.69
iter:  15 12:35:42  -390.013333        c -1.70
iter:  16 12:37:06  -393.447312        c -1.71
iter:  17 12:38:28  -416.134866        c -1.59
iter:  18 12:39:50  -417.838843        c -1.64
iter:  19 12:41:15  -415.691580        c -1.68
iter:  20 12:42:37  -401.065104        c -1.67
iter:  21 12:43:58  -393.638612        c -1.72
iter:  22 12:45:23  -531.212847        c -1.80
iter:  23 12:46:46  -393.512564        c -1.22
iter:  24 12:48:10  -387.593910        c -1.92
iter:  25 12:49:32  -398.301001        c -1.97
iter:  26 12:50:54  -396.449910        c -1.75
iter:  27 12:52:23  -394.183775        c -1.77
iter:  28 12:53:51  -387.463768        c -1.81
iter:  29 12:55:16  -388.040599        c -2.19
iter:  30 12:56:42  -387.996038        c -2.00
iter:  31 12:58:05  -386.561766        c -2.04
iter:  32 12:59:31  -386.508058        c -2.11
iter:  33 13:00:58  -385.821022        c -2.17
iter:  34 13:02:25  -385.761096        c -2.35
iter:  35 13:03:51  -385.232735        c -2.35
iter:  36 13:05:19  -385.851689        c -2.64
iter:  37 13:06:51  -386.276708        c -2.33
iter:  38 13:08:16  -386.144793        c -2.17
iter:  39 13:09:43  -385.232924        c -2.23
iter:  40 13:11:09  -385.155518        c -2.77
iter:  41 13:12:37  -385.286193        c -3.02
iter:  42 13:14:07  -385.158659        c -2.81
iter:  43 13:15:32  -385.120949        c -2.78
iter:  44 13:16:57  -385.141620        c -3.05
iter:  45 13:18:21  -385.127040        c -2.97
iter:  46 13:19:48  -385.144691        c -3.09
iter:  47 13:21:14  -385.162130        c -3.16
iter:  48 13:22:43  -385.137958        c -3.05
iter:  49 13:24:12  -385.118795        c -3.22
iter:  50 13:25:44  -385.124928        c -3.40
iter:  51 13:27:19  -385.143172        c -3.44
iter:  52 13:28:49  -385.126562        c -3.18
iter:  53 13:30:23  -385.117981        c -3.39
iter:  54 13:31:53  -385.120973        c -3.64
iter:  55 13:33:16  -385.107613        c -3.54
iter:  56 13:34:38  -385.120308        c -3.45
iter:  57 13:36:03  -385.121063        c -3.63
iter:  58 13:37:34  -385.114036c       c -3.58
iter:  59 13:38:58  -385.113477c       c -3.78
iter:  60 13:40:20  -385.116142c       c -3.89
iter:  61 13:41:43  -385.115365c       c -3.82
iter:  62 13:43:08  -385.111744c       c -3.93
iter:  63 13:44:31  -385.112986c       c -3.86
iter:  64 13:45:59  -385.118402c       c -4.07c

Converged after 64 iterations.

Dipole moment: (-8.008652, -8.008652, 0.225817) |e|*Ang

Energy contributions relative to reference atoms: (reference = -2919447.478158)

Kinetic:        +21.405234
Potential:      -17.118626
External:        +0.000000
XC:            -386.271396
Entropy (-ST):   -3.793876
Local:           -1.236677
SIC:             +0.000000
--------------------------
Free energy:   -387.015340
Extrapolated:  -385.118402

Showing only first 2 kpts
 Kpt  Band  Eigenvalues  Occupancy
  0   382      1.01307    1.29572
  0   383      1.02820    1.22525
  0   384      1.03135    1.21023
  0   385      1.03942    1.17136

  1   382      1.00665    1.32475
  1   383      1.00929    1.31287
  1   384      1.03326    1.20109
  1   385      1.03464    1.19448


Fermi level: 1.07404

No gap
No difference between direct/indirect transitions
Timing:                              incl.     excl.
-----------------------------------------------------------
Basic WFS set positions:             0.001     0.001   0.0% |
Basis functions set positions:       0.198     0.198   0.0% |
LCAO WFS Initialize:                 0.428     0.100   0.0% |
 Hamiltonian:                        0.328     0.000   0.0% |
  Atomic:                            0.168     0.002   0.0% |
   XC Correction:                    0.167     0.167   0.0% |
  Calculate atomic Hamiltonians:     0.028     0.028   0.0% |
  Communicate:                       0.000     0.000   0.0% |
  Hartree integrate/restrict:        0.006     0.006   0.0% |
  Initialize Hamiltonian:            0.000     0.000   0.0% |
  Poisson:                           0.077     0.006   0.0% |
   Communicate from 1D:              0.008     0.008   0.0% |
   Communicate from 2D:              0.006     0.006   0.0% |
   Communicate to 1D:                0.011     0.011   0.0% |
   Communicate to 2D:                0.010     0.010   0.0% |
   FFT 1D:                           0.007     0.007   0.0% |
   FFT 2D:                           0.029     0.029   0.0% |
  XC 3D grid:                        0.046     0.046   0.0% |
  vbar:                              0.003     0.003   0.0% |
P tci:                               4.293     4.293   0.1% |
SCF-cycle:                        5390.700     0.187   0.0% |
 Density:                         4005.054     0.001   0.0% |
  Atomic density matrices:           1.034     1.034   0.0% |
  Mix:                               7.267     7.267   0.1% |
  Multipole moments:                 0.019     0.019   0.0% |
  Normalize:                         0.007     0.007   0.0% |
  Pseudo density:                 3996.726     0.239   0.0% |
   Calculate density matrix:         9.544     9.544   0.2% |
   Construct density:             3986.700  3986.700  73.8% |-----------------------------|
   Symmetrize density:               0.243     0.243   0.0% |
 Hamiltonian:                       21.818     0.003   0.0% |
  Atomic:                           10.446     0.117   0.0% |
   XC Correction:                   10.329    10.329   0.2% |
  Calculate atomic Hamiltonians:     1.751     1.751   0.0% |
  Communicate:                       0.000     0.000   0.0% |
  Hartree integrate/restrict:        0.405     0.405   0.0% |
  Poisson:                           4.914     0.380   0.0% |
   Communicate from 1D:              0.515     0.515   0.0% |
   Communicate from 2D:              0.387     0.387   0.0% |
   Communicate to 1D:                0.647     0.647   0.0% |
   Communicate to 2D:                0.680     0.680   0.0% |
   FFT 1D:                           0.515     0.515   0.0% |
   FFT 2D:                           1.791     1.791   0.0% |
  XC 3D grid:                        3.690     3.690   0.1% |
  vbar:                              0.610     0.610   0.0% |
 LCAO eigensolver:                1363.641     1.629   0.0% |
  Calculate projections:            44.168    44.168   0.8% |
  DenseAtomicCorrection:           178.191   178.191   3.3% ||
  Distribute overlap matrix:         2.849     2.849   0.1% |
  Orbital Layouts:                 239.881   239.881   4.4% |-|
  Potential matrix:                829.282   829.282  15.4% |-----|
  Sum over cells:                   67.641    67.641   1.3% ||
ST tci:                              2.150     2.150   0.0% |
Set symmetry:                        0.000     0.000   0.0% |
TCI: Evaluate splines:               0.589     0.589   0.0% |
mktci:                               0.030     0.030   0.0% |
Other:                               3.865     3.865   0.1% |
-----------------------------------------------------------
Total:                                      5402.253 100.0%

Memory usage: 4.49 GiB
Date: Mon Feb 23 13:45:59 2026
