
  ___ ___ ___ _ _ _  
 |   |   |_  | | | | 
 | | | | | . | | | | 
 |__ |  _|___|_____|  25.7.0
 |___|_|             

User:   mikei@Z790-AORUS-ELITE-AX
Date:   Mon Feb 23 13:45:59 2026
Arch:   x86_64
Pid:    89048
CWD:    /home/mikei/Dokumenty/code/cemea/ocx
Python: 3.10.16
gpaw:   /home/mikei/.pyenv/versions/cemea-env/lib/python3.10/site-packages/gpaw
_gpaw:  /home/mikei/.pyenv/versions/cemea-env/lib/python3.10/site-packages/
        _gpaw.cpython-310-x86_64-linux-gnu.so
ase:    /home/mikei/.pyenv/versions/cemea-env/lib/python3.10/site-packages/ase (version 3.27.0)
numpy:  /home/mikei/.pyenv/versions/cemea-env/lib/python3.10/site-packages/numpy (version 2.2.6)
scipy:  /home/mikei/.pyenv/versions/cemea-env/lib/python3.10/site-packages/scipy (version 1.15.3)
libxc:  2.x.y
units:  Angstrom and eV
cores: 1
OpenMP: False
OMP_NUM_THREADS: 1

Input parameters:
  basis: dzp
  convergence: {density: 0.0001,
                eigenstates: 1e-05,
                energy: 1e-05}
  kpts: [4 4 1]
  mode: lcao

System changes: positions, numbers, cell, pbc, initial_charges, initial_magmoms 

Initialize ...

species:
  Ni:
    name: Nickel
    id: 1802175e8de9ea26d9f4394ec1a7d564
    Z: 28.0
    valence: 16
    core: 12
    charge: 0.0
    file: /home/mikei/.pyenv/versions/cemea-env/lib/python3.10/site-packages/gpaw_data/setups/Ni.LDA.gz
    compensation charges: {type: gauss,
                           rc: 0.36,
                           lmax: 2}
    cutoffs: {filter: 2.14,
              core: 1.98}
    projectors:
      #              energy  rcut
      - 4s(2.00)    -5.858   1.164
      - 3p(6.00)   -71.266   1.207
      - 4p(0.00)    -1.338   1.207
      - 3d(8.00)    -9.141   1.138
      -  s          21.353   1.164
      -  d          18.071   1.138
  
    # LCAO basis set for Ni:
    #   Name: dzp
    #   File: /home/mikei/.pyenv/versions/cemea-env/lib/python3.10/site-packages/gpaw_data/setups/Ni.dzp.basis.gz
    #   Number of radial functions: 9
    #   Number of spherical harmonics: 27
    #     l=0, rc=8.5156 Bohr: 4s-sz confined orbital
    #     l=1, rc=2.9375 Bohr: 3p-sz confined orbital
    #     l=1, rc=12.4062 Bohr: 4p-sz confined orbital
    #     l=2, rc=4.6875 Bohr: 3d-sz confined orbital
    #     l=0, rc=4.9688 Bohr: 4s-dz split-valence wave
    #     l=1, rc=2.0781 Bohr: 3p-dz split-valence wave
    #     l=1, rc=7.5469 Bohr: 4p-dz split-valence wave
    #     l=2, rc=2.9375 Bohr: 3d-dz split-valence wave
    #     l=1, rc=8.5156 Bohr: p-type Gaussian polarization
    #   Number of RI-basis functions 0

  Mo:
    name: Molybdenum
    id: ac24daaf086600a00ce6d19a74574df1
    Z: 42.0
    valence: 14
    core: 28
    charge: 0.0
    file: /home/mikei/.pyenv/versions/cemea-env/lib/python3.10/site-packages/gpaw_data/setups/Mo.LDA.gz
    compensation charges: {type: gauss,
                           rc: 0.38,
                           lmax: 2}
    cutoffs: {filter: 2.16,
              core: 1.42}
    projectors:
      #              energy  rcut
      - 4s(2.00)   -64.384   1.238
      - 5s(1.00)    -4.319   1.238
      - 4p(6.00)   -38.595   1.296
      - 5p(0.00)    -1.161   1.296
      - 4d(5.00)    -3.933   1.296
      -  d          23.278   1.296
  
    # LCAO basis set for Mo:
    #   Name: dzp
    #   File: /home/mikei/.pyenv/versions/cemea-env/lib/python3.10/site-packages/gpaw_data/setups/Mo.dzp.basis.gz
    #   Number of radial functions: 11
    #   Number of spherical harmonics: 29
    #     l=0, rc=3.5469 Bohr: 4s-sz confined orbital
    #     l=0, rc=10.0469 Bohr: 5s-sz confined orbital
    #     l=1, rc=4.0781 Bohr: 4p-sz confined orbital
    #     l=1, rc=14.0938 Bohr: 5p-sz confined orbital
    #     l=2, rc=7.2031 Bohr: 4d-sz confined orbital
    #     l=0, rc=2.1250 Bohr: 4s-dz split-valence wave
    #     l=0, rc=6.1250 Bohr: 5s-dz split-valence wave
    #     l=1, rc=2.5469 Bohr: 4p-dz split-valence wave
    #     l=1, rc=8.7656 Bohr: 5p-dz split-valence wave
    #     l=2, rc=4.2344 Bohr: 4d-dz split-valence wave
    #     l=1, rc=10.0469 Bohr: p-type Gaussian polarization
    #   Number of RI-basis functions 0

  C:
    name: Carbon
    id: d60576a1f549371a163e72552ca58787
    Z: 6.0
    valence: 4
    core: 2
    charge: 0.0
    file: /home/mikei/.pyenv/versions/cemea-env/lib/python3.10/site-packages/gpaw_data/setups/C.LDA.gz
    compensation charges: {type: gauss,
                           rc: 0.20,
                           lmax: 2}
    cutoffs: {filter: 1.14,
              core: 1.14}
    projectors:
      #              energy  rcut
      - 2s(2.00)   -13.639   0.635
      - 2p(2.00)    -5.414   0.635
      -  s          13.573   0.635
      -  p          21.797   0.635
      -  d           0.000   0.635
  
    # LCAO basis set for C:
    #   Name: dzp
    #   File: /home/mikei/.pyenv/versions/cemea-env/lib/python3.10/site-packages/gpaw_data/setups/C.dzp.basis.gz
    #   Number of radial functions: 5
    #   Number of spherical harmonics: 13
    #     l=0, rc=5.5469 Bohr: 2s-sz confined orbital
    #     l=1, rc=6.6719 Bohr: 2p-sz confined orbital
    #     l=0, rc=3.0312 Bohr: 2s-dz split-valence wave
    #     l=1, rc=3.7500 Bohr: 2p-dz split-valence wave
    #     l=2, rc=6.6719 Bohr: d-type Gaussian polarization
    #   Number of RI-basis functions 0

  Pd:
    name: Palladium
    id: e532e18c0482708fc2e61045fa7bdb18
    Z: 46.0
    valence: 16
    core: 30
    charge: 0.0
    file: /home/mikei/.pyenv/versions/cemea-env/lib/python3.10/site-packages/gpaw_data/setups/Pd.LDA.gz
    compensation charges: {type: gauss,
                           rc: 0.38,
                           lmax: 2}
    cutoffs: {filter: 2.38,
              core: 2.28}
    projectors:
      #              energy  rcut
      - 5s(0.00)    -3.604   1.228
      - 4p(6.00)   -51.371   1.360
      - 5p(0.00)    -0.356   1.360
      - 4d(10.00)    -4.308   1.228
      -  s          23.607   1.228
      -  d          22.904   1.228
  
    # LCAO basis set for Pd:
    #   Name: dzp
    #   File: /home/mikei/.pyenv/versions/cemea-env/lib/python3.10/site-packages/gpaw_data/setups/Pd.dzp.basis.gz
    #   Number of radial functions: 9
    #   Number of spherical harmonics: 27
    #     l=0, rc=10.0312 Bohr: 5s-sz confined orbital
    #     l=1, rc=3.5312 Bohr: 4p-sz confined orbital
    #     l=1, rc=16.0000 Bohr: 5p-sz confined orbital
    #     l=2, rc=6.2031 Bohr: 4d-sz confined orbital
    #     l=0, rc=6.0156 Bohr: 5s-dz split-valence wave
    #     l=1, rc=2.4062 Bohr: 4p-dz split-valence wave
    #     l=1, rc=9.9375 Bohr: 5p-dz split-valence wave
    #     l=2, rc=3.6719 Bohr: 4d-dz split-valence wave
    #     l=1, rc=10.0312 Bohr: p-type Gaussian polarization
    #   Number of RI-basis functions 0

  H:
    name: Hydrogen
    id: 4766778ce56282eaa64abeb28b7c1de3
    Z: 1.0
    valence: 1
    core: 0
    charge: 0.0
    file: /home/mikei/.pyenv/versions/cemea-env/lib/python3.10/site-packages/gpaw_data/setups/H.LDA.gz
    compensation charges: {type: gauss,
                           rc: 0.15,
                           lmax: 2}
    cutoffs: {filter: 0.85,
              core: 0.53}
    projectors:
      #              energy  rcut
      - 1s(1.00)    -6.353   0.476
      -  s          20.858   0.476
      -  p           0.000   0.476
  
    # LCAO basis set for H:
    #   Name: dzp
    #   File: /home/mikei/.pyenv/versions/cemea-env/lib/python3.10/site-packages/gpaw_data/setups/H.dzp.basis.gz
    #   Number of radial functions: 3
    #   Number of spherical harmonics: 5
    #     l=0, rc=6.4219 Bohr: 1s-sz confined orbital
    #     l=0, rc=3.6094 Bohr: 1s-dz split-valence wave
    #     l=1, rc=6.4219 Bohr: p-type Gaussian polarization
    #   Number of RI-basis functions 0

Reference energy: -2919459.607116  # eV

Spin-paired calculation

Convergence criteria:
 Maximum [total energy] change in last 3 cyles: 1e-05 eV / valence electron
 Maximum integral of absolute [dens]ity change: 0.0001 electrons / valence electron
 Maximum integral of absolute [eigenst]ate change: 1e-05 eV^2 / valence electron
 Maximum number of scf [iter]ations: 333
 (Square brackets indicate name in SCF output, whereas a 'c' in
 the SCF output indicates the quantity has converged.)

Symmetries present (total): 2

  ( 1  0  0)  ( 0  1  0)
  ( 0  1  0)  ( 1  0  0)
  ( 0  0  1)  ( 0  0  1)

16 k-points: 4 x 4 x 1 Monkhorst-Pack grid
6 k-points in the irreducible part of the Brillouin zone
       k-points in crystal coordinates                weights
   0:     0.12500000   -0.12500000    0.00000000          2/16
   1:     0.12500000    0.12500000    0.00000000          2/16
   2:     0.37500000   -0.37500000    0.00000000          2/16
   3:     0.37500000   -0.12500000    0.00000000          4/16
   4:     0.37500000    0.12500000    0.00000000          4/16
   5:     0.37500000    0.37500000    0.00000000          2/16

Wave functions: LCAO
  Diagonalizer: Serial LAPACK
  Atomic Correction: dense with blas
  Data-type: complex
 

Occupation numbers: Fermi-Dirac:
  width: 0.1000  # eV
 

Eigensolver
   LCAO using direct dense diagonalizer 

Densities:
  Coarse grid: 36*36*128 grid
  Fine grid: 72*72*256 grid
  Total Charge: 0.000000 

Density mixing:
  Method: separate
  Backend: pulay
  Linear mixing parameter: 0.05
  old densities: 5
  Damping of long wavelength oscillations: 50 

Hamiltonian:
  XC and Coulomb potentials evaluated on a 72*72*256 grid
  Using the LDA Exchange-Correlation functional
  Interpolation: tri-quintic (5. degree polynomial)
  Poisson solver: FastPoissonSolver using
    Stencil: 6*3+1=19 point O(h^6) finite-difference Laplacian
    FFT axes: [np.int64(0), np.int64(1), np.int64(2)]
    FST axes: []
 

Memory estimate:
  Process memory now: 4595.48 MiB
  Calculator: 1023.91 MiB
    Density: 243.86 MiB
      Arrays: 32.91 MiB
      Localized functions: 198.29 MiB
      Mixer: 12.66 MiB
    Hamiltonian: 36.22 MiB
      Arrays: 21.52 MiB
      XC: 0.00 MiB
      Poisson: 0.00 MiB
      vbar: 14.71 MiB
    Wavefunctions: 743.83 MiB
      C [qnM]: 58.41 MiB
      S, T [2 x qmm]: 343.17 MiB
      P [aqMi]: 7.21 MiB
      BasisFunctions: 335.04 MiB
      Eigensolver: 0.00 MiB

Total number of cores used: 1

Number of atoms: 53
Number of atomic orbitals: 1369
Number of bands in calculation: 466
Number of valence electrons: 769
Bands to converge: occupied

... initialized

Initializing position-dependent things.

Density initialized from atomic densities
      .-----------------.  
     /|                 |  
    / |                 |  
   /  |                 |  
  /   |                 |  
 *    |                 |  
 |    |                 |  
 |    |                 |  
 |    |                 |  
 |    |    H            |  
 |    |  Pd    Pd       |  
 |    |Pd Mo Pd     Mo  |  
 |    |                 |  
 |    |Mo C      Mo C   |  
 |  Mo|       Mo        |  
 |    |                 |  
 |    |C         C      |  
 Mo Ni|   NMo   Ni      |  
 | Ni | NNi   NNi   Ni  |  
 |    |                 |  
 Ni   NNi   NNi   Ni    |  
 |  NNi   NNi   NNi     |  
 | Ni | NNi   NNi   Ni  |  
 |    |                 |  
 Ni   NNi   NNi   Ni    |  
 |   Ni    Ni    Ni     |  
 |    |                 |  
 |    |                 |  
 |    |                 |  
 |    |                 |  
 |    |                 |  
 |    .-----------------.  
 |   /                 /   
 |  /                 /    
 | /                 /     
 |/                 /      
 *-----------------*       

Atomic positions and initial magnetic moments

Positions:
   0 Ni     1.244508    1.244508    8.000000    ( 0.0000,  0.0000,  0.0000)
   1 Ni     3.733524    1.244508    8.000000    ( 0.0000,  0.0000,  0.0000)
   2 Ni     6.222540    1.244508    8.000000    ( 0.0000,  0.0000,  0.0000)
   3 Ni     1.244508    3.733524    8.000000    ( 0.0000,  0.0000,  0.0000)
   4 Ni     3.733524    3.733524    8.000000    ( 0.0000,  0.0000,  0.0000)
   5 Ni     6.222540    3.733524    8.000000    ( 0.0000,  0.0000,  0.0000)
   6 Ni     1.244508    6.222540    8.000000    ( 0.0000,  0.0000,  0.0000)
   7 Ni     3.733524    6.222540    8.000000    ( 0.0000,  0.0000,  0.0000)
   8 Ni     6.222540    6.222540    8.000000    ( 0.0000,  0.0000,  0.0000)
   9 Ni     0.000000    0.000000    9.760000    ( 0.0000,  0.0000,  0.0000)
  10 Ni     2.489016    0.000000    9.760000    ( 0.0000,  0.0000,  0.0000)
  11 Ni     4.978032    0.000000    9.760000    ( 0.0000,  0.0000,  0.0000)
  12 Ni     0.000000    2.489016    9.760000    ( 0.0000,  0.0000,  0.0000)
  13 Ni     2.489016    2.489016    9.760000    ( 0.0000,  0.0000,  0.0000)
  14 Ni     4.978032    2.489016    9.760000    ( 0.0000,  0.0000,  0.0000)
  15 Ni     0.000000    4.978032    9.760000    ( 0.0000,  0.0000,  0.0000)
  16 Ni     2.489016    4.978032    9.760000    ( 0.0000,  0.0000,  0.0000)
  17 Ni     4.978032    4.978032    9.760000    ( 0.0000,  0.0000,  0.0000)
  18 Ni     1.244508    1.244508   11.520000    ( 0.0000,  0.0000,  0.0000)
  19 Ni     3.733524    1.244508   11.520000    ( 0.0000,  0.0000,  0.0000)
  20 Ni     6.222540    1.244508   11.520000    ( 0.0000,  0.0000,  0.0000)
  21 Ni     1.244508    3.733524   11.520000    ( 0.0000,  0.0000,  0.0000)
  22 Ni     3.733524    3.733524   11.520000    ( 0.0000,  0.0000,  0.0000)
  23 Ni     6.222540    3.733524   11.520000    ( 0.0000,  0.0000,  0.0000)
  24 Ni     1.244508    6.222540   11.520000    ( 0.0000,  0.0000,  0.0000)
  25 Ni     3.733524    6.222540   11.520000    ( 0.0000,  0.0000,  0.0000)
  26 Ni     6.222540    6.222540   11.520000    ( 0.0000,  0.0000,  0.0000)
  27 Ni     0.000000    0.000000   13.280000    ( 0.0000,  0.0000,  0.0000)
  28 Ni     2.489016    0.000000   13.280000    ( 0.0000,  0.0000,  0.0000)
  29 Ni     4.978032    0.000000   13.280000    ( 0.0000,  0.0000,  0.0000)
  30 Ni     0.000000    2.489016   13.280000    ( 0.0000,  0.0000,  0.0000)
  31 Ni     2.489016    2.489016   13.280000    ( 0.0000,  0.0000,  0.0000)
  32 Ni     4.978032    2.489016   13.280000    ( 0.0000,  0.0000,  0.0000)
  33 Ni     0.000000    4.978032   13.280000    ( 0.0000,  0.0000,  0.0000)
  34 Ni     2.489016    4.978032   13.280000    ( 0.0000,  0.0000,  0.0000)
  35 Ni     4.978032    4.978032   13.280000    ( 0.0000,  0.0000,  0.0000)
  36 Mo     0.000000    0.000000   15.480000    ( 0.0000,  0.0000,  0.0000)
  37 Mo     2.060000    2.060000   17.540000    ( 0.0000,  0.0000,  0.0000)
  38 C      2.060000    2.060000   15.480000    ( 0.0000,  0.0000,  0.0000)
  39 Mo     0.000000    4.120000   15.480000    ( 0.0000,  0.0000,  0.0000)
  40 Mo     2.060000    6.180000   17.540000    ( 0.0000,  0.0000,  0.0000)
  41 C      2.060000    6.180000   15.480000    ( 0.0000,  0.0000,  0.0000)
  42 Mo     4.120000    0.000000   15.480000    ( 0.0000,  0.0000,  0.0000)
  43 Mo     6.180000    2.060000   17.540000    ( 0.0000,  0.0000,  0.0000)
  44 C      6.180000    2.060000   15.480000    ( 0.0000,  0.0000,  0.0000)
  45 Mo     4.120000    4.120000   15.480000    ( 0.0000,  0.0000,  0.0000)
  46 Mo     6.180000    6.180000   17.540000    ( 0.0000,  0.0000,  0.0000)
  47 C      6.180000    6.180000   15.480000    ( 0.0000,  0.0000,  0.0000)
  48 Pd     1.991786    1.991786   19.340000    ( 0.0000,  0.0000,  0.0000)
  49 Pd     1.991786    4.391786   19.340000    ( 0.0000,  0.0000,  0.0000)
  50 Pd     4.391786    1.991786   19.340000    ( 0.0000,  0.0000,  0.0000)
  51 Pd     4.391786    4.391786   19.340000    ( 0.0000,  0.0000,  0.0000)
  52 H      3.191786    3.191786   20.840000    ( 0.0000,  0.0000,  0.0000)

Unit cell:
           periodic     x           y           z      points  spacing
  1. axis:    yes    7.467048    0.000000    0.000000    36     0.2074
  2. axis:    yes    0.000000    7.467048    0.000000    36     0.2074
  3. axis:    yes    0.000000    0.000000   25.540000   128     0.1995

  Lengths:   7.467048   7.467048  25.540000
  Angles:   90.000000  90.000000  90.000000

Effective grid spacing dv^(1/3) = 0.2048

     iter     time        total  log10-change:
                         energy   eigst   dens
iter:   1 13:46:38 -1098.728645        c
iter:   2 13:48:09 -6274.064197        c -0.90
iter:   3 13:49:43  -466.935565        c -0.36
iter:   4 13:51:16  -602.686342        c -1.36
iter:   5 13:52:46  -489.934172        c -1.05
iter:   6 13:54:20  -478.951444        c -1.36
iter:   7 13:55:51  -496.374263        c -1.43
iter:   8 13:57:20  -465.656455        c -1.41
iter:   9 13:58:51  -444.729278        c -1.54
iter:  10 14:00:21  -476.061352        c -1.60
iter:  11 14:01:55  -442.213472        c -1.23
iter:  12 14:03:31  -417.940795        c -1.57
iter:  13 14:05:13  -396.986831        c -1.67
iter:  14 14:06:55  -392.505034        c -1.72
iter:  15 14:08:33  -392.124478        c -1.74
iter:  16 14:10:12  -399.193753        c -1.76
iter:  17 14:11:53  -419.888087        c -1.65
iter:  18 14:13:34  -397.481621        c -1.61
iter:  19 14:15:11  -404.007927        c -1.84
iter:  20 14:16:48  -408.961901        c -1.70
iter:  21 14:18:34  -402.765444        c -1.64
iter:  22 14:20:14  -568.385518        c -1.74
iter:  23 14:21:52  -392.429818        c -1.15
iter:  24 14:23:28  -398.960598        c -2.01
iter:  25 14:25:09  -393.582680        c -1.81
iter:  26 14:26:46  -396.470782        c -1.89
iter:  27 14:28:21  -395.341183        c -1.85
iter:  28 14:29:58  -394.871219        c -1.89
iter:  29 14:31:38  -403.398699        c -2.05
iter:  30 14:33:12  -390.924177        c -1.89
iter:  31 14:34:48  -395.038684        c -2.07
iter:  32 14:36:24  -389.503895        c -1.85
iter:  33 14:38:00  -391.928345        c -2.12
iter:  34 14:39:43  -389.155201        c -1.95
iter:  35 14:42:00  -390.151696        c -2.18
iter:  36 14:43:36  -388.785431        c -2.11
iter:  37 14:45:11  -388.736916        c -2.34
iter:  38 14:46:46  -389.150618        c -2.33
iter:  39 14:48:20  -388.662243        c -2.26
iter:  40 14:50:04  -388.656014        c -2.42
iter:  41 14:51:39  -388.660959c       c -2.40
iter:  42 14:53:16  -388.440254        c -2.51
iter:  43 14:54:51  -388.519907        c -2.61
iter:  44 14:56:28  -388.656356        c -2.53
iter:  45 14:58:06  -388.375929        c -2.46
iter:  46 14:59:45  -388.497889        c -2.75
iter:  47 15:01:26  -388.698124        c -2.59
iter:  48 15:02:52  -388.339592        c -2.59
iter:  49 15:04:17  -388.276725        c -2.84
iter:  50 15:05:43  -388.305728        c -2.84
iter:  51 15:07:04  -388.262147        c -2.96
iter:  52 15:08:25  -388.263193        c -3.05
iter:  53 15:09:45  -388.268089c       c -3.15
iter:  54 15:11:06  -388.319739        c -2.99
iter:  55 15:12:26  -388.278477        c -2.93
iter:  56 15:13:47  -388.256820        c -3.10
iter:  57 15:15:09  -388.271758        c -3.10
iter:  58 15:16:29  -388.258175        c -3.16
iter:  59 15:17:50  -388.271762        c -3.31
iter:  60 15:19:10  -388.267661        c -3.20
iter:  61 15:20:31  -388.259470        c -2.98
iter:  62 15:21:52  -388.252515        c -3.35
iter:  63 15:23:12  -388.249156        c -3.38
iter:  64 15:24:38  -388.256078c       c -3.31
iter:  65 15:26:00  -388.247233        c -3.50
iter:  66 15:27:20  -388.274838        c -3.42
iter:  67 15:28:41  -388.249977        c -3.21
iter:  68 15:30:06  -388.248219        c -3.25
iter:  69 15:31:31  -388.249457c       c -3.70
iter:  70 15:32:52  -388.245959c       c -3.51
iter:  71 15:34:12  -388.248380c       c -3.64
iter:  72 15:35:33  -388.244199c       c -3.64
iter:  73 15:36:54  -388.292927        c -3.48
iter:  74 15:38:15  -388.246239        c -3.06
iter:  75 15:39:40  -388.249946        c -3.68
iter:  76 15:41:05  -388.247906c       c -3.87
iter:  77 15:42:28  -388.247267c       c -3.78
iter:  78 15:43:50  -388.247615c       c -3.96
iter:  79 15:45:12  -388.243189c       c -3.86
iter:  80 15:46:36  -388.255137        c -3.63
iter:  81 15:47:59  -388.247200        c -3.64
iter:  82 15:49:38  -388.252714        c -4.00
iter:  83 15:51:04  -388.248071c       c -3.77
iter:  84 15:52:32  -388.249078c       c -4.05c

Converged after 84 iterations.

Dipole moment: (-7.997233, -7.997233, 0.144121) |e|*Ang

Energy contributions relative to reference atoms: (reference = -2919459.607116)

Kinetic:        +23.655324
Potential:      -19.875030
External:        +0.000000
XC:            -388.731009
Entropy (-ST):   -3.812820
Local:           -1.391953
SIC:             +0.000000
--------------------------
Free energy:   -390.155488
Extrapolated:  -388.249078

Showing only first 2 kpts
 Kpt  Band  Eigenvalues  Occupancy
  0   382      0.99729    1.32127
  0   383      1.00543    1.28432
  0   384      1.02207    1.20617
  0   385      1.02276    1.20287

  1   382      0.99335    1.33882
  1   383      1.00014    1.30842
  1   384      1.01862    1.22262
  1   385      1.02501    1.19205


Fermi level: 1.06390

No gap
No difference between direct/indirect transitions
Timing:                              incl.     excl.
-----------------------------------------------------------
Basic WFS set positions:             0.001     0.001   0.0% |
Basis functions set positions:       0.205     0.205   0.0% |
LCAO WFS Initialize:                 0.442     0.107   0.0% |
 Hamiltonian:                        0.335     0.000   0.0% |
  Atomic:                            0.168     0.002   0.0% |
   XC Correction:                    0.166     0.166   0.0% |
  Calculate atomic Hamiltonians:     0.028     0.028   0.0% |
  Communicate:                       0.000     0.000   0.0% |
  Hartree integrate/restrict:        0.006     0.006   0.0% |
  Initialize Hamiltonian:            0.000     0.000   0.0% |
  Poisson:                           0.080     0.006   0.0% |
   Communicate from 1D:              0.008     0.008   0.0% |
   Communicate from 2D:              0.006     0.006   0.0% |
   Communicate to 1D:                0.010     0.010   0.0% |
   Communicate to 2D:                0.010     0.010   0.0% |
   FFT 1D:                           0.008     0.008   0.0% |
   FFT 2D:                           0.030     0.030   0.0% |
  XC 3D grid:                        0.046     0.046   0.0% |
  vbar:                              0.006     0.006   0.0% |
P tci:                               4.703     4.703   0.1% |
SCF-cycle:                        7578.759     0.229   0.0% |
 Density:                         5497.035     0.001   0.0% |
  Atomic density matrices:           1.393     1.393   0.0% |
  Mix:                              10.399    10.399   0.1% |
  Multipole moments:                 0.026     0.026   0.0% |
  Normalize:                         0.010     0.010   0.0% |
  Pseudo density:                 5485.205     0.345   0.0% |
   Calculate density matrix:        14.109    14.109   0.2% |
   Construct density:             5470.427  5470.427  72.0% |----------------------------|
   Symmetrize density:               0.324     0.324   0.0% |
 Hamiltonian:                       29.574     0.004   0.0% |
  Atomic:                           14.114     0.162   0.0% |
   XC Correction:                   13.952    13.952   0.2% |
  Calculate atomic Hamiltonians:     2.360     2.360   0.0% |
  Communicate:                       0.000     0.000   0.0% |
  Hartree integrate/restrict:        0.580     0.580   0.0% |
  Poisson:                           6.494     0.501   0.0% |
   Communicate from 1D:              0.662     0.662   0.0% |
   Communicate from 2D:              0.522     0.522   0.0% |
   Communicate to 1D:                0.849     0.849   0.0% |
   Communicate to 2D:                0.875     0.875   0.0% |
   FFT 1D:                           0.696     0.696   0.0% |
   FFT 2D:                           2.390     2.390   0.0% |
  XC 3D grid:                        5.160     5.160   0.1% |
  vbar:                              0.861     0.861   0.0% |
 LCAO eigensolver:                2051.920     2.268   0.0% |
  Calculate projections:            68.864    68.864   0.9% |
  DenseAtomicCorrection:           268.063   268.063   3.5% ||
  Distribute overlap matrix:         5.159     5.159   0.1% |
  Orbital Layouts:                 464.022   464.022   6.1% |-|
  Potential matrix:               1150.259  1150.259  15.1% |-----|
  Sum over cells:                   93.285    93.285   1.2% |
ST tci:                              2.321     2.321   0.0% |
Set symmetry:                        0.000     0.000   0.0% |
TCI: Evaluate splines:               0.706     0.706   0.0% |
mktci:                               0.032     0.032   0.0% |
Other:                               5.430     5.430   0.1% |
-----------------------------------------------------------
Total:                                      7592.599 100.0%

Memory usage: 4.49 GiB
Date: Mon Feb 23 15:52:32 2026
