
  ___ ___ ___ _ _ _  
 |   |   |_  | | | | 
 | | | | | . | | | | 
 |__ |  _|___|_____|  25.7.0
 |___|_|             

User:   mikei@Z790-AORUS-ELITE-AX
Date:   Fri Feb 20 10:09:02 2026
Arch:   x86_64
Pid:    89048
CWD:    /home/mikei/Dokumenty/code/cemea/ocx
Python: 3.10.16
gpaw:   /home/mikei/.pyenv/versions/cemea-env/lib/python3.10/site-packages/gpaw
_gpaw:  /home/mikei/.pyenv/versions/cemea-env/lib/python3.10/site-packages/
        _gpaw.cpython-310-x86_64-linux-gnu.so
ase:    /home/mikei/.pyenv/versions/cemea-env/lib/python3.10/site-packages/ase (version 3.27.0)
numpy:  /home/mikei/.pyenv/versions/cemea-env/lib/python3.10/site-packages/numpy (version 2.2.6)
scipy:  /home/mikei/.pyenv/versions/cemea-env/lib/python3.10/site-packages/scipy (version 1.15.3)
libxc:  2.x.y
units:  Angstrom and eV
cores: 1
OpenMP: False
OMP_NUM_THREADS: 1

Input parameters:
  basis: dzp
  convergence: {density: 0.0001,
                eigenstates: 1e-05,
                energy: 1e-05}
  kpts: [4 4 1]
  mode: lcao

System changes: positions, numbers, cell, pbc, initial_charges, initial_magmoms 

Initialize ...

species:
  Mo:
    name: Molybdenum
    id: ac24daaf086600a00ce6d19a74574df1
    Z: 42.0
    valence: 14
    core: 28
    charge: 0.0
    file: /home/mikei/.pyenv/versions/cemea-env/lib/python3.10/site-packages/gpaw_data/setups/Mo.LDA.gz
    compensation charges: {type: gauss,
                           rc: 0.38,
                           lmax: 2}
    cutoffs: {filter: 2.16,
              core: 1.42}
    projectors:
      #              energy  rcut
      - 4s(2.00)   -64.384   1.238
      - 5s(1.00)    -4.319   1.238
      - 4p(6.00)   -38.595   1.296
      - 5p(0.00)    -1.161   1.296
      - 4d(5.00)    -3.933   1.296
      -  d          23.278   1.296
  
    # LCAO basis set for Mo:
    #   Name: dzp
    #   File: /home/mikei/.pyenv/versions/cemea-env/lib/python3.10/site-packages/gpaw_data/setups/Mo.dzp.basis.gz
    #   Number of radial functions: 11
    #   Number of spherical harmonics: 29
    #     l=0, rc=3.5469 Bohr: 4s-sz confined orbital
    #     l=0, rc=10.0469 Bohr: 5s-sz confined orbital
    #     l=1, rc=4.0781 Bohr: 4p-sz confined orbital
    #     l=1, rc=14.0938 Bohr: 5p-sz confined orbital
    #     l=2, rc=7.2031 Bohr: 4d-sz confined orbital
    #     l=0, rc=2.1250 Bohr: 4s-dz split-valence wave
    #     l=0, rc=6.1250 Bohr: 5s-dz split-valence wave
    #     l=1, rc=2.5469 Bohr: 4p-dz split-valence wave
    #     l=1, rc=8.7656 Bohr: 5p-dz split-valence wave
    #     l=2, rc=4.2344 Bohr: 4d-dz split-valence wave
    #     l=1, rc=10.0469 Bohr: p-type Gaussian polarization
    #   Number of RI-basis functions 0

  C:
    name: Carbon
    id: d60576a1f549371a163e72552ca58787
    Z: 6.0
    valence: 4
    core: 2
    charge: 0.0
    file: /home/mikei/.pyenv/versions/cemea-env/lib/python3.10/site-packages/gpaw_data/setups/C.LDA.gz
    compensation charges: {type: gauss,
                           rc: 0.20,
                           lmax: 2}
    cutoffs: {filter: 1.14,
              core: 1.14}
    projectors:
      #              energy  rcut
      - 2s(2.00)   -13.639   0.635
      - 2p(2.00)    -5.414   0.635
      -  s          13.573   0.635
      -  p          21.797   0.635
      -  d           0.000   0.635
  
    # LCAO basis set for C:
    #   Name: dzp
    #   File: /home/mikei/.pyenv/versions/cemea-env/lib/python3.10/site-packages/gpaw_data/setups/C.dzp.basis.gz
    #   Number of radial functions: 5
    #   Number of spherical harmonics: 13
    #     l=0, rc=5.5469 Bohr: 2s-sz confined orbital
    #     l=1, rc=6.6719 Bohr: 2p-sz confined orbital
    #     l=0, rc=3.0312 Bohr: 2s-dz split-valence wave
    #     l=1, rc=3.7500 Bohr: 2p-dz split-valence wave
    #     l=2, rc=6.6719 Bohr: d-type Gaussian polarization
    #   Number of RI-basis functions 0

  H:
    name: Hydrogen
    id: 4766778ce56282eaa64abeb28b7c1de3
    Z: 1.0
    valence: 1
    core: 0
    charge: 0.0
    file: /home/mikei/.pyenv/versions/cemea-env/lib/python3.10/site-packages/gpaw_data/setups/H.LDA.gz
    compensation charges: {type: gauss,
                           rc: 0.15,
                           lmax: 2}
    cutoffs: {filter: 0.85,
              core: 0.53}
    projectors:
      #              energy  rcut
      - 1s(1.00)    -6.353   0.476
      -  s          20.858   0.476
      -  p           0.000   0.476
  
    # LCAO basis set for H:
    #   Name: dzp
    #   File: /home/mikei/.pyenv/versions/cemea-env/lib/python3.10/site-packages/gpaw_data/setups/H.dzp.basis.gz
    #   Number of radial functions: 3
    #   Number of spherical harmonics: 5
    #     l=0, rc=6.4219 Bohr: 1s-sz confined orbital
    #     l=0, rc=3.6094 Bohr: 1s-dz split-valence wave
    #     l=1, rc=6.4219 Bohr: p-type Gaussian polarization
    #   Number of RI-basis functions 0

Reference energy: -3536946.986767  # eV

Spin-paired calculation

Convergence criteria:
 Maximum [total energy] change in last 3 cyles: 1e-05 eV / valence electron
 Maximum integral of absolute [dens]ity change: 0.0001 electrons / valence electron
 Maximum integral of absolute [eigenst]ate change: 1e-05 eV^2 / valence electron
 Maximum number of scf [iter]ations: 333
 (Square brackets indicate name in SCF output, whereas a 'c' in
 the SCF output indicates the quantity has converged.)

Symmetries present (total): 2

  ( 1  0  0)  ( 0  1  0)
  ( 0  1  0)  ( 1  0  0)
  ( 0  0  1)  ( 0  0  1)

16 k-points: 4 x 4 x 1 Monkhorst-Pack grid
6 k-points in the irreducible part of the Brillouin zone
       k-points in crystal coordinates                weights
   0:     0.12500000   -0.12500000    0.00000000          2/16
   1:     0.12500000    0.12500000    0.00000000          2/16
   2:     0.37500000   -0.37500000    0.00000000          2/16
   3:     0.37500000   -0.12500000    0.00000000          4/16
   4:     0.37500000    0.12500000    0.00000000          4/16
   5:     0.37500000    0.37500000    0.00000000          2/16

Wave functions: LCAO
  Diagonalizer: Serial LAPACK
  Atomic Correction: dense with blas
  Data-type: complex
 

Occupation numbers: Fermi-Dirac:
  width: 0.1000  # eV
 

Eigensolver
   LCAO using direct dense diagonalizer 

Densities:
  Coarse grid: 84*84*112 grid
  Fine grid: 168*168*224 grid
  Total Charge: 0.000000 

Density mixing:
  Method: separate
  Backend: pulay
  Linear mixing parameter: 0.05
  old densities: 5
  Damping of long wavelength oscillations: 50 

Hamiltonian:
  XC and Coulomb potentials evaluated on a 168*168*224 grid
  Using the LDA Exchange-Correlation functional
  Interpolation: tri-quintic (5. degree polynomial)
  Poisson solver: FastPoissonSolver using
    Stencil: 6*3+1=19 point O(h^6) finite-difference Laplacian
    FFT axes: [np.int64(0), np.int64(1), np.int64(2)]
    FST axes: []
 

Memory estimate:
  Process memory now: 1999.07 MiB
  Calculator: 1160.39 MiB
    Density: 397.08 MiB
      Arrays: 156.76 MiB
      Localized functions: 180.02 MiB
      Mixer: 60.29 MiB
    Hamiltonian: 114.16 MiB
      Arrays: 102.50 MiB
      XC: 0.00 MiB
      Poisson: 0.00 MiB
      vbar: 11.66 MiB
    Wavefunctions: 649.15 MiB
      C [qnM]: 32.59 MiB
      S, T [2 x qmm]: 238.38 MiB
      P [aqMi]: 5.15 MiB
      BasisFunctions: 373.03 MiB
      Eigensolver: 0.00 MiB

Total number of cores used: 1

Number of atoms: 49
Number of atomic orbitals: 1141
Number of bands in calculation: 312
Number of valence electrons: 513
Bands to converge: occupied

... initialized

Initializing position-dependent things.

Density initialized from atomic densities
           .---------------------------------------.  
          /|                                       |  
         / |                                       |  
        /  |                                       |  
       /   |                                       |  
      /    |                                       |  
     /     |                                       |  
    /      |                                       |  
   /       |                                       |  
  /        |                                       |  
 *         |                                       |  
 |         |                                       |  
 |         |                                       |  
 |         |   Mo        Mo        Mo        Mo    |  
 |         |                                       |  
 |         |                                       |  
 |         |Mo C      MoHC      Mo C      Mo C     |  
 |      Mo |      Mo         Mo       Mo           |  
 |        Mo        Mo        Mo        Mo         |  
 |         |C         C         C         C        |  
 |    Mo   |    Mo        Mo        Mo             |  
 |     Mo C|     Mo C      Mo C      Mo C          |  
 | Mo      | Mo         Mo       Mo                |  
 |         |                                       |  
 |     C   |     C         C         C             |  
 Mo        Mo        Mo        Mo                  |  
 |         |                                       |  
 |         .---------------------------------------.  
 |        /                                       /   
 |       /                                       /    
 |      /                                       /     
 |     /                                       /      
 |    /                                       /       
 |   /                                       /        
 |  /                                       /         
 | /                                       /          
 |/                                       /           
 *---------------------------------------*            

Atomic positions and initial magnetic moments

Positions:
   0 Mo     0.000000    0.000000   10.000000    ( 0.0000,  0.0000,  0.0000)
   1 Mo     2.060000    2.060000   12.060000    ( 0.0000,  0.0000,  0.0000)
   2 C      2.060000    2.060000   10.000000    ( 0.0000,  0.0000,  0.0000)
   3 Mo     0.000000    4.120000   10.000000    ( 0.0000,  0.0000,  0.0000)
   4 Mo     2.060000    6.180000   12.060000    ( 0.0000,  0.0000,  0.0000)
   5 C      2.060000    6.180000   10.000000    ( 0.0000,  0.0000,  0.0000)
   6 Mo     0.000000    8.240000   10.000000    ( 0.0000,  0.0000,  0.0000)
   7 Mo     2.060000   10.300000   12.060000    ( 0.0000,  0.0000,  0.0000)
   8 C      2.060000   10.300000   10.000000    ( 0.0000,  0.0000,  0.0000)
   9 Mo     0.000000   12.360000   10.000000    ( 0.0000,  0.0000,  0.0000)
  10 Mo     2.060000   14.420000   12.060000    ( 0.0000,  0.0000,  0.0000)
  11 C      2.060000   14.420000   10.000000    ( 0.0000,  0.0000,  0.0000)
  12 Mo     4.120000    0.000000   10.000000    ( 0.0000,  0.0000,  0.0000)
  13 Mo     6.180000    2.060000   12.060000    ( 0.0000,  0.0000,  0.0000)
  14 C      6.180000    2.060000   10.000000    ( 0.0000,  0.0000,  0.0000)
  15 Mo     4.120000    4.120000   10.000000    ( 0.0000,  0.0000,  0.0000)
  16 Mo     6.180000    6.180000   12.060000    ( 0.0000,  0.0000,  0.0000)
  17 C      6.180000    6.180000   10.000000    ( 0.0000,  0.0000,  0.0000)
  18 Mo     4.120000    8.240000   10.000000    ( 0.0000,  0.0000,  0.0000)
  19 Mo     6.180000   10.300000   12.060000    ( 0.0000,  0.0000,  0.0000)
  20 C      6.180000   10.300000   10.000000    ( 0.0000,  0.0000,  0.0000)
  21 Mo     4.120000   12.360000   10.000000    ( 0.0000,  0.0000,  0.0000)
  22 Mo     6.180000   14.420000   12.060000    ( 0.0000,  0.0000,  0.0000)
  23 C      6.180000   14.420000   10.000000    ( 0.0000,  0.0000,  0.0000)
  24 Mo     8.240000    0.000000   10.000000    ( 0.0000,  0.0000,  0.0000)
  25 Mo    10.300000    2.060000   12.060000    ( 0.0000,  0.0000,  0.0000)
  26 C     10.300000    2.060000   10.000000    ( 0.0000,  0.0000,  0.0000)
  27 Mo     8.240000    4.120000   10.000000    ( 0.0000,  0.0000,  0.0000)
  28 Mo    10.300000    6.180000   12.060000    ( 0.0000,  0.0000,  0.0000)
  29 C     10.300000    6.180000   10.000000    ( 0.0000,  0.0000,  0.0000)
  30 Mo     8.240000    8.240000   10.000000    ( 0.0000,  0.0000,  0.0000)
  31 Mo    10.300000   10.300000   12.060000    ( 0.0000,  0.0000,  0.0000)
  32 C     10.300000   10.300000   10.000000    ( 0.0000,  0.0000,  0.0000)
  33 Mo     8.240000   12.360000   10.000000    ( 0.0000,  0.0000,  0.0000)
  34 Mo    10.300000   14.420000   12.060000    ( 0.0000,  0.0000,  0.0000)
  35 C     10.300000   14.420000   10.000000    ( 0.0000,  0.0000,  0.0000)
  36 Mo    12.360000    0.000000   10.000000    ( 0.0000,  0.0000,  0.0000)
  37 Mo    14.420000    2.060000   12.060000    ( 0.0000,  0.0000,  0.0000)
  38 C     14.420000    2.060000   10.000000    ( 0.0000,  0.0000,  0.0000)
  39 Mo    12.360000    4.120000   10.000000    ( 0.0000,  0.0000,  0.0000)
  40 Mo    14.420000    6.180000   12.060000    ( 0.0000,  0.0000,  0.0000)
  41 C     14.420000    6.180000   10.000000    ( 0.0000,  0.0000,  0.0000)
  42 Mo    12.360000    8.240000   10.000000    ( 0.0000,  0.0000,  0.0000)
  43 Mo    14.420000   10.300000   12.060000    ( 0.0000,  0.0000,  0.0000)
  44 C     14.420000   10.300000   10.000000    ( 0.0000,  0.0000,  0.0000)
  45 Mo    12.360000   12.360000   10.000000    ( 0.0000,  0.0000,  0.0000)
  46 Mo    14.420000   14.420000   12.060000    ( 0.0000,  0.0000,  0.0000)
  47 C     14.420000   14.420000   10.000000    ( 0.0000,  0.0000,  0.0000)
  48 H      7.553333    7.553333   13.560000    ( 0.0000,  0.0000,  0.0000)

Unit cell:
           periodic     x           y           z      points  spacing
  1. axis:    yes   16.480000    0.000000    0.000000    84     0.1962
  2. axis:    yes    0.000000   16.480000    0.000000    84     0.1962
  3. axis:    yes    0.000000    0.000000   22.060000   112     0.1970

  Lengths:  16.480000  16.480000  22.060000
  Angles:   90.000000  90.000000  90.000000

Effective grid spacing dv^(1/3) = 0.1964

     iter     time        total  log10-change:
                         energy   eigst   dens
iter:   1 10:09:22  -388.824818        c
iter:   2 10:09:59  -362.775100        c -0.86
iter:   3 10:10:36  -343.072572        c -0.96
iter:   4 10:11:06  -329.324465        c -1.05
iter:   5 10:11:37  -332.591279        c -1.21
iter:   6 10:12:12  -322.857745        c -1.14
iter:   7 10:12:44  -322.147056        c -1.42
iter:   8 10:13:15  -320.021471        c -1.46
iter:   9 10:13:47  -319.919734        c -1.77
iter:  10 10:14:18  -319.814937        c -1.78
iter:  11 10:14:54  -319.768755        c -1.86
iter:  12 10:15:25  -319.707711        c -1.86
iter:  13 10:15:55  -319.485111        c -1.89
iter:  14 10:16:28  -319.415531        c -2.02
iter:  15 10:17:03  -319.332320        c -2.04
iter:  16 10:17:33  -319.241280        c -2.10
iter:  17 10:18:07  -319.201357        c -2.13
iter:  18 10:18:37  -319.166240        c -2.16
iter:  19 10:19:11  -319.147992        c -2.21
iter:  20 10:19:42  -319.117519        c -2.24
iter:  21 10:20:12  -319.114816        c -2.31
iter:  22 10:20:47  -319.108256        c -2.42
iter:  23 10:21:17  -319.117998        c -2.44
iter:  24 10:21:51  -319.106580        c -2.45
iter:  25 10:22:26  -319.108512        c -2.43
iter:  26 10:23:01  -319.104239c       c -2.51
iter:  27 10:23:32  -319.095865        c -2.62
iter:  28 10:24:03  -319.097207        c -2.61
iter:  29 10:24:34  -319.093353c       c -2.70
iter:  30 10:25:05  -319.093129c       c -2.69
iter:  31 10:25:42  -319.091436c       c -2.78
iter:  32 10:26:15  -319.088772c       c -2.77
iter:  33 10:26:48  -319.089506c       c -2.85
iter:  34 10:27:19  -319.087798c       c -2.90
iter:  35 10:27:49  -319.091916c       c -2.90
iter:  36 10:28:23  -319.086920c       c -2.81
iter:  37 10:28:56  -319.088430c       c -2.90
iter:  38 10:29:36  -319.087731c       c -2.90
iter:  39 10:30:10  -319.086405c       c -3.00
iter:  40 10:30:42  -319.086426c       c -3.05
iter:  41 10:31:12  -319.085978c       c -3.12
iter:  42 10:31:43  -319.086421c       c -3.04
iter:  43 10:32:13  -319.086440c       c -3.14
iter:  44 10:32:42  -319.085780c       c -3.08
iter:  45 10:33:13  -319.085701c       c -3.10
iter:  46 10:33:45  -319.085439c       c -3.18
iter:  47 10:34:18  -319.086626c       c -3.23
iter:  48 10:34:53  -319.085216c       c -3.17
iter:  49 10:35:28  -319.085343c       c -3.31
iter:  50 10:36:00  -319.085554c       c -3.30
iter:  51 10:36:31  -319.085431c       c -3.32
iter:  52 10:37:07  -319.085396c       c -3.37
iter:  53 10:37:40  -319.085087c       c -3.37
iter:  54 10:38:14  -319.085672c       c -3.28
iter:  55 10:38:46  -319.085631c       c -3.36
iter:  56 10:39:18  -319.085388c       c -3.40
iter:  57 10:39:48  -319.085247c       c -3.42
iter:  58 10:40:23  -319.085280c       c -3.52
iter:  59 10:40:59  -319.085650c       c -3.55
iter:  60 10:41:31  -319.085189c       c -3.54
iter:  61 10:42:10  -319.085183c       c -3.52
iter:  62 10:42:40  -319.085368c       c -3.52
iter:  63 10:43:13  -319.085397c       c -3.54
iter:  64 10:43:48  -319.085356c       c -3.62
iter:  65 10:44:19  -319.085123c       c -3.63
iter:  66 10:44:52  -319.085440c       c -3.64
iter:  67 10:45:22  -319.085432c       c -3.64
iter:  68 10:45:53  -319.085376c       c -3.74
iter:  69 10:46:23  -319.085315c       c -3.74
iter:  70 10:46:53  -319.085328c       c -3.76
iter:  71 10:47:27  -319.085546c       c -3.78
iter:  72 10:47:58  -319.085294c       c -3.82
iter:  73 10:48:28  -319.085280c       c -3.75
iter:  74 10:49:01  -319.085345c       c -3.81
iter:  75 10:49:36  -319.085372c       c -3.87
iter:  76 10:50:11  -319.085387c       c -3.94
iter:  77 10:50:41  -319.085288c       c -3.96
iter:  78 10:51:16  -319.085450c       c -3.95
iter:  79 10:51:46  -319.085435c       c -3.89
iter:  80 10:52:16  -319.085389c       c -3.96
iter:  81 10:52:49  -319.085357c       c -3.96
iter:  82 10:53:21  -319.085351c       c -3.99
iter:  83 10:53:57  -319.085454c       c -4.05c

Converged after 83 iterations.

Dipole moment: (-21.134049, -21.134049, 1.800383) |e|*Ang

Energy contributions relative to reference atoms: (reference = -3536946.986767)

Kinetic:       -850.244663
Potential:     +579.403056
External:        +0.000000
XC:             -49.827446
Entropy (-ST):   -4.259475
Local:           +3.713338
SIC:             +0.000000
--------------------------
Free energy:   -321.215191
Extrapolated:  -319.085454

Showing only first 2 kpts
 Kpt  Band  Eigenvalues  Occupancy
  0   254     -2.44169    0.79900
  0   255     -2.41148    0.65934
  0   256     -2.40712    0.64023
  0   257     -2.40344    0.62432

  1   254     -2.45389    0.85816
  1   255     -2.41085    0.65655
  1   256     -2.40740    0.64145
  1   257     -2.40475    0.62995


Fermi level: -2.48245

No gap
No difference between direct/indirect transitions
Timing:                              incl.     excl.
-----------------------------------------------------------
Basic WFS set positions:             0.001     0.001   0.0% |
Basis functions set positions:       0.192     0.192   0.0% |
LCAO WFS Initialize:                 1.004     0.121   0.0% |
 Hamiltonian:                        0.883     0.000   0.0% |
  Atomic:                            0.155     0.002   0.0% |
   XC Correction:                    0.153     0.153   0.0% |
  Calculate atomic Hamiltonians:     0.023     0.023   0.0% |
  Communicate:                       0.000     0.000   0.0% |
  Hartree integrate/restrict:        0.052     0.052   0.0% |
  Initialize Hamiltonian:            0.000     0.000   0.0% |
  Poisson:                           0.472     0.032   0.0% |
   Communicate from 1D:              0.051     0.051   0.0% |
   Communicate from 2D:              0.051     0.051   0.0% |
   Communicate to 1D:                0.033     0.033   0.0% |
   Communicate to 2D:                0.050     0.050   0.0% |
   FFT 1D:                           0.052     0.052   0.0% |
   FFT 2D:                           0.204     0.204   0.0% |
  XC 3D grid:                        0.169     0.169   0.0% |
  vbar:                              0.011     0.011   0.0% |
P tci:                               1.973     1.973   0.1% |
SCF-cycle:                        2686.247     0.116   0.0% |
 Density:                         1727.571     0.001   0.0% |
  Atomic density matrices:           0.867     0.867   0.0% |
  Mix:                              12.561    12.561   0.5% |
  Multipole moments:                 0.023     0.023   0.0% |
  Normalize:                         0.047     0.047   0.0% |
  Pseudo density:                 1714.073     0.091   0.0% |
   Calculate density matrix:         7.072     7.072   0.3% |
   Construct density:             1705.455  1705.455  63.3% |------------------------|
   Symmetrize density:               1.455     1.455   0.1% |
 Hamiltonian:                       71.963     0.005   0.0% |
  Atomic:                           12.868     0.141   0.0% |
   XC Correction:                   12.727    12.727   0.5% |
  Calculate atomic Hamiltonians:     1.893     1.893   0.1% |
  Communicate:                       0.000     0.000   0.0% |
  Hartree integrate/restrict:        3.955     3.955   0.1% |
  Poisson:                          38.330     2.224   0.1% |
   Communicate from 1D:              4.149     4.149   0.2% |
   Communicate from 2D:              4.180     4.180   0.2% |
   Communicate to 1D:                2.792     2.792   0.1% |
   Communicate to 2D:                4.126     4.126   0.2% |
   FFT 1D:                           4.321     4.321   0.2% |
   FFT 2D:                          16.537    16.537   0.6% |
  XC 3D grid:                       14.294    14.294   0.5% |
  vbar:                              0.619     0.619   0.0% |
 LCAO eigensolver:                 886.597     1.667   0.1% |
  Calculate projections:            57.039    57.039   2.1% ||
  DenseAtomicCorrection:           158.470   158.470   5.9% |-|
  Distribute overlap matrix:         2.942     2.942   0.1% |
  Orbital Layouts:                 320.726   320.726  11.9% |----|
  Potential matrix:                320.672   320.672  11.9% |----|
  Sum over cells:                   25.082    25.082   0.9% |
ST tci:                              0.514     0.514   0.0% |
Set symmetry:                        0.000     0.000   0.0% |
TCI: Evaluate splines:               0.166     0.166   0.0% |
mktci:                               0.007     0.007   0.0% |
Other:                               4.498     4.498   0.2% |
-----------------------------------------------------------
Total:                                      2694.603 100.0%

Memory usage: 2.17 GiB
Date: Fri Feb 20 10:53:57 2026
