
  ___ ___ ___ _ _ _  
 |   |   |_  | | | | 
 | | | | | . | | | | 
 |__ |  _|___|_____|  25.7.0
 |___|_|             

User:   mikei@Z790-AORUS-ELITE-AX
Date:   Fri Feb 20 12:56:32 2026
Arch:   x86_64
Pid:    89048
CWD:    /home/mikei/Dokumenty/code/cemea/ocx
Python: 3.10.16
gpaw:   /home/mikei/.pyenv/versions/cemea-env/lib/python3.10/site-packages/gpaw
_gpaw:  /home/mikei/.pyenv/versions/cemea-env/lib/python3.10/site-packages/
        _gpaw.cpython-310-x86_64-linux-gnu.so
ase:    /home/mikei/.pyenv/versions/cemea-env/lib/python3.10/site-packages/ase (version 3.27.0)
numpy:  /home/mikei/.pyenv/versions/cemea-env/lib/python3.10/site-packages/numpy (version 2.2.6)
scipy:  /home/mikei/.pyenv/versions/cemea-env/lib/python3.10/site-packages/scipy (version 1.15.3)
libxc:  2.x.y
units:  Angstrom and eV
cores: 1
OpenMP: False
OMP_NUM_THREADS: 1

Input parameters:
  basis: dzp
  convergence: {density: 0.0001,
                eigenstates: 1e-05,
                energy: 1e-05}
  kpts: [4 4 1]
  mode: lcao

System changes: positions, numbers, cell, pbc, initial_charges, initial_magmoms 

Initialize ...

species:
  Mo:
    name: Molybdenum
    id: ac24daaf086600a00ce6d19a74574df1
    Z: 42.0
    valence: 14
    core: 28
    charge: 0.0
    file: /home/mikei/.pyenv/versions/cemea-env/lib/python3.10/site-packages/gpaw_data/setups/Mo.LDA.gz
    compensation charges: {type: gauss,
                           rc: 0.38,
                           lmax: 2}
    cutoffs: {filter: 2.16,
              core: 1.42}
    projectors:
      #              energy  rcut
      - 4s(2.00)   -64.384   1.238
      - 5s(1.00)    -4.319   1.238
      - 4p(6.00)   -38.595   1.296
      - 5p(0.00)    -1.161   1.296
      - 4d(5.00)    -3.933   1.296
      -  d          23.278   1.296
  
    # LCAO basis set for Mo:
    #   Name: dzp
    #   File: /home/mikei/.pyenv/versions/cemea-env/lib/python3.10/site-packages/gpaw_data/setups/Mo.dzp.basis.gz
    #   Number of radial functions: 11
    #   Number of spherical harmonics: 29
    #     l=0, rc=3.5469 Bohr: 4s-sz confined orbital
    #     l=0, rc=10.0469 Bohr: 5s-sz confined orbital
    #     l=1, rc=4.0781 Bohr: 4p-sz confined orbital
    #     l=1, rc=14.0938 Bohr: 5p-sz confined orbital
    #     l=2, rc=7.2031 Bohr: 4d-sz confined orbital
    #     l=0, rc=2.1250 Bohr: 4s-dz split-valence wave
    #     l=0, rc=6.1250 Bohr: 5s-dz split-valence wave
    #     l=1, rc=2.5469 Bohr: 4p-dz split-valence wave
    #     l=1, rc=8.7656 Bohr: 5p-dz split-valence wave
    #     l=2, rc=4.2344 Bohr: 4d-dz split-valence wave
    #     l=1, rc=10.0469 Bohr: p-type Gaussian polarization
    #   Number of RI-basis functions 0

  C:
    name: Carbon
    id: d60576a1f549371a163e72552ca58787
    Z: 6.0
    valence: 4
    core: 2
    charge: 0.0
    file: /home/mikei/.pyenv/versions/cemea-env/lib/python3.10/site-packages/gpaw_data/setups/C.LDA.gz
    compensation charges: {type: gauss,
                           rc: 0.20,
                           lmax: 2}
    cutoffs: {filter: 1.14,
              core: 1.14}
    projectors:
      #              energy  rcut
      - 2s(2.00)   -13.639   0.635
      - 2p(2.00)    -5.414   0.635
      -  s          13.573   0.635
      -  p          21.797   0.635
      -  d           0.000   0.635
  
    # LCAO basis set for C:
    #   Name: dzp
    #   File: /home/mikei/.pyenv/versions/cemea-env/lib/python3.10/site-packages/gpaw_data/setups/C.dzp.basis.gz
    #   Number of radial functions: 5
    #   Number of spherical harmonics: 13
    #     l=0, rc=5.5469 Bohr: 2s-sz confined orbital
    #     l=1, rc=6.6719 Bohr: 2p-sz confined orbital
    #     l=0, rc=3.0312 Bohr: 2s-dz split-valence wave
    #     l=1, rc=3.7500 Bohr: 2p-dz split-valence wave
    #     l=2, rc=6.6719 Bohr: d-type Gaussian polarization
    #   Number of RI-basis functions 0

Reference energy: -3536934.857808  # eV

Spin-paired calculation

Convergence criteria:
 Maximum [total energy] change in last 3 cyles: 1e-05 eV / valence electron
 Maximum integral of absolute [dens]ity change: 0.0001 electrons / valence electron
 Maximum integral of absolute [eigenst]ate change: 1e-05 eV^2 / valence electron
 Maximum number of scf [iter]ations: 333
 (Square brackets indicate name in SCF output, whereas a 'c' in
 the SCF output indicates the quantity has converged.)

Symmetries present (total): 8

  ( 1  0  0)  ( 1  0  0)  ( 0  1  0)  ( 0  1  0)  ( 0 -1  0)  ( 0 -1  0)
  ( 0  1  0)  ( 0 -1  0)  ( 1  0  0)  (-1  0  0)  ( 1  0  0)  (-1  0  0)
  ( 0  0  1)  ( 0  0  1)  ( 0  0  1)  ( 0  0  1)  ( 0  0  1)  ( 0  0  1)

  (-1  0  0)  (-1  0  0)
  ( 0  1  0)  ( 0 -1  0)
  ( 0  0  1)  ( 0  0  1)

16 k-points: 4 x 4 x 1 Monkhorst-Pack grid
3 k-points in the irreducible part of the Brillouin zone
       k-points in crystal coordinates                weights
   0:     0.12500000    0.12500000    0.00000000          4/16
   1:     0.37500000    0.12500000    0.00000000          8/16
   2:     0.37500000    0.37500000    0.00000000          4/16

Wave functions: LCAO
  Diagonalizer: Serial LAPACK
  Atomic Correction: dense with blas
  Data-type: complex
 

Occupation numbers: Fermi-Dirac:
  width: 0.1000  # eV
 

Eigensolver
   LCAO using direct dense diagonalizer 

Densities:
  Coarse grid: 84*84*112 grid
  Fine grid: 168*168*224 grid
  Total Charge: 0.000000 

Density mixing:
  Method: separate
  Backend: pulay
  Linear mixing parameter: 0.05
  old densities: 5
  Damping of long wavelength oscillations: 50 

Hamiltonian:
  XC and Coulomb potentials evaluated on a 168*168*224 grid
  Using the LDA Exchange-Correlation functional
  Interpolation: tri-quintic (5. degree polynomial)
  Poisson solver: FastPoissonSolver using
    Stencil: 6*3+1=19 point O(h^6) finite-difference Laplacian
    FFT axes: [np.int64(0), np.int64(1), np.int64(2)]
    FST axes: []
 

Memory estimate:
  Process memory now: 2222.55 MiB
  Calculator: 1020.21 MiB
    Density: 396.81 MiB
      Arrays: 156.76 MiB
      Localized functions: 179.76 MiB
      Mixer: 60.29 MiB
    Hamiltonian: 114.14 MiB
      Arrays: 102.50 MiB
      XC: 0.00 MiB
      Poisson: 0.00 MiB
      vbar: 11.64 MiB
    Wavefunctions: 509.26 MiB
      C [qnM]: 16.22 MiB
      S, T [2 x qmm]: 118.15 MiB
      P [aqMi]: 2.55 MiB
      BasisFunctions: 372.34 MiB
      Eigensolver: 0.00 MiB

Total number of cores used: 1

Number of atoms: 48
Number of atomic orbitals: 1136
Number of bands in calculation: 312
Number of valence electrons: 512
Bands to converge: occupied

... initialized

Initializing position-dependent things.

Density initialized from atomic densities
           .---------------------------------------.  
          /|                                       |  
         / |                                       |  
        /  |                                       |  
       /   |                                       |  
      /    |                                       |  
     /     |                                       |  
    /      |                                       |  
   /       |                                       |  
  /        |                                       |  
 *         |                                       |  
 |         |                                       |  
 |         |                                       |  
 |         |   Mo        Mo        Mo        Mo    |  
 |         |                                       |  
 |         |                                       |  
 |         |Mo C      Mo C      Mo C      Mo C     |  
 |      Mo |      Mo         Mo       Mo           |  
 |        Mo        Mo        Mo        Mo         |  
 |         |C         C         C         C        |  
 |    Mo   |    Mo        Mo        Mo             |  
 |     Mo C|     Mo C      Mo C      Mo C          |  
 | Mo      | Mo         Mo       Mo                |  
 |         |                                       |  
 |     C   |     C         C         C             |  
 Mo        Mo        Mo        Mo                  |  
 |         |                                       |  
 |         .---------------------------------------.  
 |        /                                       /   
 |       /                                       /    
 |      /                                       /     
 |     /                                       /      
 |    /                                       /       
 |   /                                       /        
 |  /                                       /         
 | /                                       /          
 |/                                       /           
 *---------------------------------------*            

Atomic positions and initial magnetic moments

Positions:
   0 Mo     0.000000    0.000000   10.000000    ( 0.0000,  0.0000,  0.0000)
   1 Mo     2.060000    2.060000   12.060000    ( 0.0000,  0.0000,  0.0000)
   2 C      2.060000    2.060000   10.000000    ( 0.0000,  0.0000,  0.0000)
   3 Mo     0.000000    4.120000   10.000000    ( 0.0000,  0.0000,  0.0000)
   4 Mo     2.060000    6.180000   12.060000    ( 0.0000,  0.0000,  0.0000)
   5 C      2.060000    6.180000   10.000000    ( 0.0000,  0.0000,  0.0000)
   6 Mo     0.000000    8.240000   10.000000    ( 0.0000,  0.0000,  0.0000)
   7 Mo     2.060000   10.300000   12.060000    ( 0.0000,  0.0000,  0.0000)
   8 C      2.060000   10.300000   10.000000    ( 0.0000,  0.0000,  0.0000)
   9 Mo     0.000000   12.360000   10.000000    ( 0.0000,  0.0000,  0.0000)
  10 Mo     2.060000   14.420000   12.060000    ( 0.0000,  0.0000,  0.0000)
  11 C      2.060000   14.420000   10.000000    ( 0.0000,  0.0000,  0.0000)
  12 Mo     4.120000    0.000000   10.000000    ( 0.0000,  0.0000,  0.0000)
  13 Mo     6.180000    2.060000   12.060000    ( 0.0000,  0.0000,  0.0000)
  14 C      6.180000    2.060000   10.000000    ( 0.0000,  0.0000,  0.0000)
  15 Mo     4.120000    4.120000   10.000000    ( 0.0000,  0.0000,  0.0000)
  16 Mo     6.180000    6.180000   12.060000    ( 0.0000,  0.0000,  0.0000)
  17 C      6.180000    6.180000   10.000000    ( 0.0000,  0.0000,  0.0000)
  18 Mo     4.120000    8.240000   10.000000    ( 0.0000,  0.0000,  0.0000)
  19 Mo     6.180000   10.300000   12.060000    ( 0.0000,  0.0000,  0.0000)
  20 C      6.180000   10.300000   10.000000    ( 0.0000,  0.0000,  0.0000)
  21 Mo     4.120000   12.360000   10.000000    ( 0.0000,  0.0000,  0.0000)
  22 Mo     6.180000   14.420000   12.060000    ( 0.0000,  0.0000,  0.0000)
  23 C      6.180000   14.420000   10.000000    ( 0.0000,  0.0000,  0.0000)
  24 Mo     8.240000    0.000000   10.000000    ( 0.0000,  0.0000,  0.0000)
  25 Mo    10.300000    2.060000   12.060000    ( 0.0000,  0.0000,  0.0000)
  26 C     10.300000    2.060000   10.000000    ( 0.0000,  0.0000,  0.0000)
  27 Mo     8.240000    4.120000   10.000000    ( 0.0000,  0.0000,  0.0000)
  28 Mo    10.300000    6.180000   12.060000    ( 0.0000,  0.0000,  0.0000)
  29 C     10.300000    6.180000   10.000000    ( 0.0000,  0.0000,  0.0000)
  30 Mo     8.240000    8.240000   10.000000    ( 0.0000,  0.0000,  0.0000)
  31 Mo    10.300000   10.300000   12.060000    ( 0.0000,  0.0000,  0.0000)
  32 C     10.300000   10.300000   10.000000    ( 0.0000,  0.0000,  0.0000)
  33 Mo     8.240000   12.360000   10.000000    ( 0.0000,  0.0000,  0.0000)
  34 Mo    10.300000   14.420000   12.060000    ( 0.0000,  0.0000,  0.0000)
  35 C     10.300000   14.420000   10.000000    ( 0.0000,  0.0000,  0.0000)
  36 Mo    12.360000    0.000000   10.000000    ( 0.0000,  0.0000,  0.0000)
  37 Mo    14.420000    2.060000   12.060000    ( 0.0000,  0.0000,  0.0000)
  38 C     14.420000    2.060000   10.000000    ( 0.0000,  0.0000,  0.0000)
  39 Mo    12.360000    4.120000   10.000000    ( 0.0000,  0.0000,  0.0000)
  40 Mo    14.420000    6.180000   12.060000    ( 0.0000,  0.0000,  0.0000)
  41 C     14.420000    6.180000   10.000000    ( 0.0000,  0.0000,  0.0000)
  42 Mo    12.360000    8.240000   10.000000    ( 0.0000,  0.0000,  0.0000)
  43 Mo    14.420000   10.300000   12.060000    ( 0.0000,  0.0000,  0.0000)
  44 C     14.420000   10.300000   10.000000    ( 0.0000,  0.0000,  0.0000)
  45 Mo    12.360000   12.360000   10.000000    ( 0.0000,  0.0000,  0.0000)
  46 Mo    14.420000   14.420000   12.060000    ( 0.0000,  0.0000,  0.0000)
  47 C     14.420000   14.420000   10.000000    ( 0.0000,  0.0000,  0.0000)

Unit cell:
           periodic     x           y           z      points  spacing
  1. axis:    yes   16.480000    0.000000    0.000000    84     0.1962
  2. axis:    yes    0.000000   16.480000    0.000000    84     0.1962
  3. axis:    yes    0.000000    0.000000   22.060000   112     0.1970

  Lengths:  16.480000  16.480000  22.060000
  Angles:   90.000000  90.000000  90.000000

Effective grid spacing dv^(1/3) = 0.1964

     iter     time        total  log10-change:
                         energy   eigst   dens
iter:   1 12:56:45  -384.887433        c
iter:   2 12:57:04  -359.239468        c -0.86
iter:   3 12:57:22  -340.100996        c -0.96
iter:   4 12:57:40  -326.258379        c -1.05
iter:   5 12:57:57  -319.499399        c -1.21
iter:   6 12:58:15  -317.418551        c -1.42
iter:   7 12:58:32  -316.681519        c -1.72
iter:   8 12:58:50  -316.363564        c -1.83
iter:   9 12:59:08  -316.285851        c -2.11
iter:  10 12:59:25  -316.248865        c -2.18
iter:  11 12:59:43  -316.231557        c -2.37
iter:  12 13:00:00  -316.199925        c -2.40
iter:  13 13:00:18  -316.202085        c -2.66
iter:  14 13:00:36  -316.201843c       c -2.73
iter:  15 13:00:54  -316.202613c       c -2.75
iter:  16 13:01:11  -316.207787        c -2.83
iter:  17 13:01:32  -316.204254        c -2.87
iter:  18 13:01:52  -316.206475c       c -2.96
iter:  19 13:02:12  -316.206029c       c -3.08
iter:  20 13:02:34  -316.205158c       c -3.15
iter:  21 13:02:52  -316.204182c       c -3.15
iter:  22 13:03:09  -316.202288c       c -3.22
iter:  23 13:03:27  -316.202274c       c -3.19
iter:  24 13:03:47  -316.200691c       c -3.28
iter:  25 13:04:08  -316.198814c       c -3.36
iter:  26 13:04:29  -316.198842c       c -3.47
iter:  27 13:04:46  -316.197097c       c -3.49
iter:  28 13:05:06  -316.196601c       c -3.61
iter:  29 13:05:23  -316.196377c       c -3.66
iter:  30 13:05:41  -316.196281c       c -3.68
iter:  31 13:05:58  -316.196062c       c -3.75
iter:  32 13:06:19  -316.196024c       c -3.81
iter:  33 13:06:37  -316.196033c       c -3.89
iter:  34 13:06:55  -316.196097c       c -3.99
iter:  35 13:07:14  -316.196262c       c -4.03c

Converged after 35 iterations.

Dipole moment: (-21.163816, -21.163816, 2.023827) |e|*Ang

Energy contributions relative to reference atoms: (reference = -3536934.857808)

Kinetic:       -849.458450
Potential:     +580.294638
External:        +0.000000
XC:             -48.636006
Entropy (-ST):   -4.287316
Local:           +3.747212
SIC:             +0.000000
--------------------------
Free energy:   -318.339920
Extrapolated:  -316.196262

Showing only first 2 kpts
 Kpt  Band  Eigenvalues  Occupancy
  0   254     -2.36920    0.66666
  0   255     -2.36920    0.66665
  0   256     -2.36236    0.63660
  0   257     -2.36235    0.63657

  1   254     -2.44906    1.05264
  1   255     -2.41918    0.90363
  1   256     -2.36606    0.65278
  1   257     -2.35719    0.61437


Fermi level: -2.43852

No gap
No difference between direct/indirect transitions
Timing:                              incl.     excl.
-----------------------------------------------------------
Basic WFS set positions:             0.003     0.003   0.0% |
Basis functions set positions:       0.194     0.194   0.0% |
LCAO WFS Initialize:                 1.005     0.121   0.0% |
 Hamiltonian:                        0.884     0.000   0.0% |
  Atomic:                            0.154     0.002   0.0% |
   XC Correction:                    0.153     0.153   0.0% |
  Calculate atomic Hamiltonians:     0.023     0.023   0.0% |
  Communicate:                       0.000     0.000   0.0% |
  Hartree integrate/restrict:        0.052     0.052   0.0% |
  Initialize Hamiltonian:            0.000     0.000   0.0% |
  Poisson:                           0.474     0.032   0.0% |
   Communicate from 1D:              0.052     0.052   0.0% |
   Communicate from 2D:              0.050     0.050   0.0% |
   Communicate to 1D:                0.034     0.034   0.0% |
   Communicate to 2D:                0.050     0.050   0.0% |
   FFT 1D:                           0.053     0.053   0.0% |
   FFT 2D:                           0.203     0.203   0.0% |
  XC 3D grid:                        0.172     0.172   0.0% |
  vbar:                              0.008     0.008   0.0% |
P tci:                               1.030     1.030   0.2% |
SCF-cycle:                         634.899     0.036   0.0% |
 Density:                          362.546     0.001   0.0% |
  Atomic density matrices:           0.212     0.212   0.0% |
  Mix:                               5.059     5.059   0.8% |
  Multipole moments:                 0.009     0.009   0.0% |
  Normalize:                         0.015     0.015   0.0% |
  Pseudo density:                  357.250     0.037   0.0% |
   Calculate density matrix:         1.513     1.513   0.2% |
   Construct density:              353.376   353.376  55.1% |---------------------|
   Symmetrize density:               2.324     2.324   0.4% |
 Hamiltonian:                       29.880     0.002   0.0% |
  Atomic:                            5.259     0.056   0.0% |
   XC Correction:                    5.203     5.203   0.8% |
  Calculate atomic Hamiltonians:     0.779     0.779   0.1% |
  Communicate:                       0.000     0.000   0.0% |
  Hartree integrate/restrict:        1.639     1.639   0.3% |
  Poisson:                          15.840     0.923   0.1% |
   Communicate from 1D:              1.720     1.720   0.3% |
   Communicate from 2D:              1.722     1.722   0.3% |
   Communicate to 1D:                1.158     1.158   0.2% |
   Communicate to 2D:                1.703     1.703   0.3% |
   FFT 1D:                           1.801     1.801   0.3% |
   FFT 2D:                           6.813     6.813   1.1% |
  XC 3D grid:                        6.076     6.076   0.9% |
  vbar:                              0.285     0.285   0.0% |
 LCAO eigensolver:                 242.436     0.334   0.1% |
  Calculate projections:            11.820    11.820   1.8% ||
  DenseAtomicCorrection:            29.596    29.596   4.6% |-|
  Distribute overlap matrix:         0.509     0.509   0.1% |
  Orbital Layouts:                  60.202    60.202   9.4% |---|
  Potential matrix:                135.033   135.033  21.1% |-------|
  Sum over cells:                    4.941     4.941   0.8% |
ST tci:                              0.454     0.454   0.1% |
Set symmetry:                        0.001     0.001   0.0% |
TCI: Evaluate splines:               0.123     0.123   0.0% |
mktci:                               0.007     0.007   0.0% |
Other:                               3.680     3.680   0.6% |
-----------------------------------------------------------
Total:                                       641.396 100.0%

Memory usage: 2.17 GiB
Date: Fri Feb 20 13:07:14 2026
