
  ___ ___ ___ _ _ _  
 |   |   |_  | | | | 
 | | | | | . | | | | 
 |__ |  _|___|_____|  25.7.0
 |___|_|             

User:   ubuntu@third-test
Date:   Thu Feb 12 18:56:52 2026
Arch:   x86_64
Pid:    1539777
CWD:    /mnt/vdd1/work/cemea/fairchem/src/fairchem/applications/ocx/mo_h_adsorption_workflow
Python: 3.10.16
gpaw:   /home/ubuntu/.pyenv/versions/cemea-env/lib/python3.10/site-packages/gpaw
_gpaw:  /home/ubuntu/.pyenv/versions/cemea-env/lib/python3.10/site-packages/
        _gpaw.cpython-310-x86_64-linux-gnu.so
ase:    /home/ubuntu/.pyenv/versions/cemea-env/lib/python3.10/site-packages/ase (version 3.27.0)
numpy:  /home/ubuntu/.pyenv/versions/cemea-env/lib/python3.10/site-packages/numpy (version 2.2.6)
scipy:  /home/ubuntu/.pyenv/versions/cemea-env/lib/python3.10/site-packages/scipy (version 1.15.3)
libxc:  2.x.y
units:  Angstrom and eV
cores: 1
OpenMP: False
OMP_NUM_THREADS: 1

Input parameters:
  basis: dzp
  convergence: {density: 0.0001,
                eigenstates: 1e-05,
                energy: 1e-05}
  kpts: [4 4 1]
  mode: lcao

System changes: positions, numbers, cell, pbc, initial_charges, initial_magmoms 

Initialize ...

species:
  Ni:
    name: Nickel
    id: 1802175e8de9ea26d9f4394ec1a7d564
    Z: 28.0
    valence: 16
    core: 12
    charge: 0.0
    file: /home/ubuntu/.pyenv/versions/cemea-env/lib/python3.10/site-packages/gpaw_data/setups/Ni.LDA.gz
    compensation charges: {type: gauss,
                           rc: 0.36,
                           lmax: 2}
    cutoffs: {filter: 2.14,
              core: 1.98}
    projectors:
      #              energy  rcut
      - 4s(2.00)    -5.858   1.164
      - 3p(6.00)   -71.266   1.207
      - 4p(0.00)    -1.338   1.207
      - 3d(8.00)    -9.141   1.138
      -  s          21.353   1.164
      -  d          18.071   1.138
  
    # LCAO basis set for Ni:
    #   Name: dzp
    #   File: /home/ubuntu/.pyenv/versions/cemea-env/lib/python3.10/site-packages/gpaw_data/setups/Ni.dzp.basis.gz
    #   Number of radial functions: 9
    #   Number of spherical harmonics: 27
    #     l=0, rc=8.5156 Bohr: 4s-sz confined orbital
    #     l=1, rc=2.9375 Bohr: 3p-sz confined orbital
    #     l=1, rc=12.4062 Bohr: 4p-sz confined orbital
    #     l=2, rc=4.6875 Bohr: 3d-sz confined orbital
    #     l=0, rc=4.9688 Bohr: 4s-dz split-valence wave
    #     l=1, rc=2.0781 Bohr: 3p-dz split-valence wave
    #     l=1, rc=7.5469 Bohr: 4p-dz split-valence wave
    #     l=2, rc=2.9375 Bohr: 3d-dz split-valence wave
    #     l=1, rc=8.5156 Bohr: p-type Gaussian polarization
    #   Number of RI-basis functions 0

  Mo:
    name: Molybdenum
    id: ac24daaf086600a00ce6d19a74574df1
    Z: 42.0
    valence: 14
    core: 28
    charge: 0.0
    file: /home/ubuntu/.pyenv/versions/cemea-env/lib/python3.10/site-packages/gpaw_data/setups/Mo.LDA.gz
    compensation charges: {type: gauss,
                           rc: 0.38,
                           lmax: 2}
    cutoffs: {filter: 2.16,
              core: 1.42}
    projectors:
      #              energy  rcut
      - 4s(2.00)   -64.384   1.238
      - 5s(1.00)    -4.319   1.238
      - 4p(6.00)   -38.595   1.296
      - 5p(0.00)    -1.161   1.296
      - 4d(5.00)    -3.933   1.296
      -  d          23.278   1.296
  
    # LCAO basis set for Mo:
    #   Name: dzp
    #   File: /home/ubuntu/.pyenv/versions/cemea-env/lib/python3.10/site-packages/gpaw_data/setups/Mo.dzp.basis.gz
    #   Number of radial functions: 11
    #   Number of spherical harmonics: 29
    #     l=0, rc=3.5469 Bohr: 4s-sz confined orbital
    #     l=0, rc=10.0469 Bohr: 5s-sz confined orbital
    #     l=1, rc=4.0781 Bohr: 4p-sz confined orbital
    #     l=1, rc=14.0938 Bohr: 5p-sz confined orbital
    #     l=2, rc=7.2031 Bohr: 4d-sz confined orbital
    #     l=0, rc=2.1250 Bohr: 4s-dz split-valence wave
    #     l=0, rc=6.1250 Bohr: 5s-dz split-valence wave
    #     l=1, rc=2.5469 Bohr: 4p-dz split-valence wave
    #     l=1, rc=8.7656 Bohr: 5p-dz split-valence wave
    #     l=2, rc=4.2344 Bohr: 4d-dz split-valence wave
    #     l=1, rc=10.0469 Bohr: p-type Gaussian polarization
    #   Number of RI-basis functions 0

  N:
    name: Nitrogen
    id: c467cdfa1b75f62c8f7a0469921b1cfb
    Z: 7.0
    valence: 5
    core: 2
    charge: 0.0
    file: /home/ubuntu/.pyenv/versions/cemea-env/lib/python3.10/site-packages/gpaw_data/setups/N.LDA.gz
    compensation charges: {type: gauss,
                           rc: 0.18,
                           lmax: 2}
    cutoffs: {filter: 1.11,
              core: 0.96}
    projectors:
      #              energy  rcut
      - 2s(2.00)   -18.420   0.603
      - 2p(3.00)    -7.237   0.529
      -  s           8.791   0.603
      -  p          19.974   0.529
      -  d           0.000   0.577
  
    # LCAO basis set for N:
    #   Name: dzp
    #   File: /home/ubuntu/.pyenv/versions/cemea-env/lib/python3.10/site-packages/gpaw_data/setups/N.dzp.basis.gz
    #   Number of radial functions: 5
    #   Number of spherical harmonics: 13
    #     l=0, rc=4.8594 Bohr: 2s-sz confined orbital
    #     l=1, rc=6.0625 Bohr: 2p-sz confined orbital
    #     l=0, rc=2.6094 Bohr: 2s-dz split-valence wave
    #     l=1, rc=3.2656 Bohr: 2p-dz split-valence wave
    #     l=2, rc=6.0625 Bohr: d-type Gaussian polarization
    #   Number of RI-basis functions 0

Reference energy: -2372863.453391  # eV

Spin-paired calculation

Convergence criteria:
 Maximum [total energy] change in last 3 cyles: 1e-05 eV / valence electron
 Maximum integral of absolute [dens]ity change: 0.0001 electrons / valence electron
 Maximum integral of absolute [eigenst]ate change: 1e-05 eV^2 / valence electron
 Maximum number of scf [iter]ations: 333
 (Square brackets indicate name in SCF output, whereas a 'c' in
 the SCF output indicates the quantity has converged.)

Symmetries present (total): 2

  ( 1  0  0)  ( 0  1  0)
  ( 0  1  0)  ( 1  0  0)
  ( 0  0  1)  ( 0  0  1)

16 k-points: 4 x 4 x 1 Monkhorst-Pack grid
6 k-points in the irreducible part of the Brillouin zone
       k-points in crystal coordinates                weights
   0:     0.12500000   -0.12500000    0.00000000          2/16
   1:     0.12500000    0.12500000    0.00000000          2/16
   2:     0.37500000   -0.37500000    0.00000000          2/16
   3:     0.37500000   -0.12500000    0.00000000          4/16
   4:     0.37500000    0.12500000    0.00000000          4/16
   5:     0.37500000    0.37500000    0.00000000          2/16

Wave functions: LCAO
  Diagonalizer: Serial LAPACK
  Atomic Correction: dense with blas
  Data-type: complex
 

Occupation numbers: Fermi-Dirac:
  width: 0.1000  # eV
 

Eigensolver
   LCAO using direct dense diagonalizer 

Densities:
  Coarse grid: 36*36*128 grid
  Fine grid: 72*72*256 grid
  Total Charge: 0.000000 

Density mixing:
  Method: separate
  Backend: pulay
  Linear mixing parameter: 0.05
  old densities: 5
  Damping of long wavelength oscillations: 50 

Hamiltonian:
  XC and Coulomb potentials evaluated on a 72*72*256 grid
  Using the LDA Exchange-Correlation functional
  Interpolation: tri-quintic (5. degree polynomial)
  Poisson solver: FastPoissonSolver using
    Stencil: 6*3+1=19 point O(h^6) finite-difference Laplacian
    FFT axes: [np.int64(0), np.int64(1), np.int64(2)]
    FST axes: []
 

Memory estimate:
  Process memory now: 1601.37 MiB
  Calculator: 886.31 MiB
    Density: 221.41 MiB
      Arrays: 32.91 MiB
      Localized functions: 175.85 MiB
      Mixer: 12.66 MiB
    Hamiltonian: 34.57 MiB
      Arrays: 21.52 MiB
      XC: 0.00 MiB
      Poisson: 0.00 MiB
      vbar: 13.06 MiB
    Wavefunctions: 630.32 MiB
      C [qnM]: 49.33 MiB
      S, T [2 x qmm]: 288.86 MiB
      P [aqMi]: 6.07 MiB
      BasisFunctions: 286.07 MiB
      Eigensolver: 0.00 MiB

Total number of cores used: 1

Number of atoms: 48
Number of atomic orbitals: 1256
Number of bands in calculation: 429
Number of valence electrons: 708
Bands to converge: occupied

... initialized

Initializing position-dependent things.

Density initialized from atomic densities
      .-----------------.  
     /|                 |  
    / |                 |  
   /  |                 |  
  /   |                 |  
 *    |                 |  
 |    |                 |  
 |    |                 |  
 |    |                 |  
 |    |                 |  
 |    |                 |  
 |    |   Mo        Mo  |  
 |    |                 |  
 |    |Mo N      Mo N   |  
 |  Mo|       Mo        |  
 |    |                 |  
 |    |N         N      |  
 Mo Ni|   NMo   Ni      |  
 | Ni | NNi   NNi   Ni  |  
 |    |                 |  
 Ni   NNi   NNi   Ni    |  
 |  NNi   NNi   NNi     |  
 | Ni | NNi   NNi   Ni  |  
 |    |                 |  
 Ni   NNi   NNi   Ni    |  
 |   Ni    Ni    Ni     |  
 |    |                 |  
 |    |                 |  
 |    |                 |  
 |    |                 |  
 |    |                 |  
 |    .-----------------.  
 |   /                 /   
 |  /                 /    
 | /                 /     
 |/                 /      
 *-----------------*       

Atomic positions and initial magnetic moments

Positions:
   0 Ni     1.244508    1.244508    8.000000    ( 0.0000,  0.0000,  0.0000)
   1 Ni     3.733524    1.244508    8.000000    ( 0.0000,  0.0000,  0.0000)
   2 Ni     6.222540    1.244508    8.000000    ( 0.0000,  0.0000,  0.0000)
   3 Ni     1.244508    3.733524    8.000000    ( 0.0000,  0.0000,  0.0000)
   4 Ni     3.733524    3.733524    8.000000    ( 0.0000,  0.0000,  0.0000)
   5 Ni     6.222540    3.733524    8.000000    ( 0.0000,  0.0000,  0.0000)
   6 Ni     1.244508    6.222540    8.000000    ( 0.0000,  0.0000,  0.0000)
   7 Ni     3.733524    6.222540    8.000000    ( 0.0000,  0.0000,  0.0000)
   8 Ni     6.222540    6.222540    8.000000    ( 0.0000,  0.0000,  0.0000)
   9 Ni     0.000000    0.000000    9.760000    ( 0.0000,  0.0000,  0.0000)
  10 Ni     2.489016    0.000000    9.760000    ( 0.0000,  0.0000,  0.0000)
  11 Ni     4.978032    0.000000    9.760000    ( 0.0000,  0.0000,  0.0000)
  12 Ni     0.000000    2.489016    9.760000    ( 0.0000,  0.0000,  0.0000)
  13 Ni     2.489016    2.489016    9.760000    ( 0.0000,  0.0000,  0.0000)
  14 Ni     4.978032    2.489016    9.760000    ( 0.0000,  0.0000,  0.0000)
  15 Ni     0.000000    4.978032    9.760000    ( 0.0000,  0.0000,  0.0000)
  16 Ni     2.489016    4.978032    9.760000    ( 0.0000,  0.0000,  0.0000)
  17 Ni     4.978032    4.978032    9.760000    ( 0.0000,  0.0000,  0.0000)
  18 Ni     1.244508    1.244508   11.520000    ( 0.0000,  0.0000,  0.0000)
  19 Ni     3.733524    1.244508   11.520000    ( 0.0000,  0.0000,  0.0000)
  20 Ni     6.222540    1.244508   11.520000    ( 0.0000,  0.0000,  0.0000)
  21 Ni     1.244508    3.733524   11.520000    ( 0.0000,  0.0000,  0.0000)
  22 Ni     3.733524    3.733524   11.520000    ( 0.0000,  0.0000,  0.0000)
  23 Ni     6.222540    3.733524   11.520000    ( 0.0000,  0.0000,  0.0000)
  24 Ni     1.244508    6.222540   11.520000    ( 0.0000,  0.0000,  0.0000)
  25 Ni     3.733524    6.222540   11.520000    ( 0.0000,  0.0000,  0.0000)
  26 Ni     6.222540    6.222540   11.520000    ( 0.0000,  0.0000,  0.0000)
  27 Ni     0.000000    0.000000   13.280000    ( 0.0000,  0.0000,  0.0000)
  28 Ni     2.489016    0.000000   13.280000    ( 0.0000,  0.0000,  0.0000)
  29 Ni     4.978032    0.000000   13.280000    ( 0.0000,  0.0000,  0.0000)
  30 Ni     0.000000    2.489016   13.280000    ( 0.0000,  0.0000,  0.0000)
  31 Ni     2.489016    2.489016   13.280000    ( 0.0000,  0.0000,  0.0000)
  32 Ni     4.978032    2.489016   13.280000    ( 0.0000,  0.0000,  0.0000)
  33 Ni     0.000000    4.978032   13.280000    ( 0.0000,  0.0000,  0.0000)
  34 Ni     2.489016    4.978032   13.280000    ( 0.0000,  0.0000,  0.0000)
  35 Ni     4.978032    4.978032   13.280000    ( 0.0000,  0.0000,  0.0000)
  36 Mo     0.000000    0.000000   15.480000    ( 0.0000,  0.0000,  0.0000)
  37 Mo     2.080000    2.080000   17.560000    ( 0.0000,  0.0000,  0.0000)
  38 N      2.080000    2.080000   15.480000    ( 0.0000,  0.0000,  0.0000)
  39 Mo     0.000000    4.160000   15.480000    ( 0.0000,  0.0000,  0.0000)
  40 Mo     2.080000    6.240000   17.560000    ( 0.0000,  0.0000,  0.0000)
  41 N      2.080000    6.240000   15.480000    ( 0.0000,  0.0000,  0.0000)
  42 Mo     4.160000    0.000000   15.480000    ( 0.0000,  0.0000,  0.0000)
  43 Mo     6.240000    2.080000   17.560000    ( 0.0000,  0.0000,  0.0000)
  44 N      6.240000    2.080000   15.480000    ( 0.0000,  0.0000,  0.0000)
  45 Mo     4.160000    4.160000   15.480000    ( 0.0000,  0.0000,  0.0000)
  46 Mo     6.240000    6.240000   17.560000    ( 0.0000,  0.0000,  0.0000)
  47 N      6.240000    6.240000   15.480000    ( 0.0000,  0.0000,  0.0000)

Unit cell:
           periodic     x           y           z      points  spacing
  1. axis:    yes    7.467048    0.000000    0.000000    36     0.2074
  2. axis:    yes    0.000000    7.467048    0.000000    36     0.2074
  3. axis:    yes    0.000000    0.000000   25.560000   128     0.1997

  Lengths:   7.467048   7.467048  25.560000
  Angles:   90.000000  90.000000  90.000000

Effective grid spacing dv^(1/3) = 0.2048

     iter     time        total  log10-change:
                         energy   eigst   dens
iter:   1 18:57:59 -1073.884352        c
iter:   2 19:00:49 -2260.672190        c -0.97
iter:   3 19:03:38 -1027.882980        c -0.57
iter:   4 19:06:29  -746.048453        c -0.93
iter:   5 19:09:20  -601.262795        c -1.12
iter:   6 19:12:11  -535.247872        c -1.21
iter:   7 19:15:04  -431.305147        c -1.28
iter:   8 19:17:55  -708.276772        c -1.47
iter:   9 19:20:45  -476.562304        c -0.97
iter:  10 19:23:34  -406.284558        c -1.38
iter:  11 19:26:24  -418.334358        c -1.55
iter:  12 19:29:16  -394.705564        c -1.54
iter:  13 19:32:07  -381.798056        c -1.65
iter:  14 19:34:57  -388.731161        c -1.63
iter:  15 19:37:46  -382.359611        c -1.56
iter:  16 19:40:37  -393.319363        c -1.68
iter:  17 19:43:27  -375.148949        c -1.51
iter:  18 19:46:18  -380.467989        c -1.83
iter:  19 19:49:10  -417.633564        c -1.74
iter:  20 19:52:00  -377.221324        c -1.57
iter:  21 19:54:50  -379.394888        c -1.83
iter:  22 19:57:41  -376.323595        c -1.81
iter:  23 20:00:32  -385.271003        c -1.94
iter:  24 20:03:23  -376.184044        c -1.84
iter:  25 20:06:14  -374.868176        c -1.94
iter:  26 20:09:03  -374.300326        c -2.10
iter:  27 20:11:55  -372.588538        c -2.05
iter:  28 20:14:45  -372.803107        c -2.33
iter:  29 20:17:36  -372.262438        c -2.37
iter:  30 20:20:27  -372.188271        c -2.44
iter:  31 20:23:17  -372.483387        c -2.50
iter:  32 20:26:06  -372.319801        c -2.38
iter:  33 20:28:54  -372.290664        c -2.39
iter:  34 20:31:44  -372.896101        c -2.44
iter:  35 20:34:35  -372.066744        c -2.34
iter:  36 20:37:26  -371.974280        c -2.73
iter:  37 20:40:16  -372.003812        c -2.91
iter:  38 20:43:06  -371.967057        c -2.92
iter:  39 20:45:57  -371.963332        c -3.00
iter:  40 20:48:48  -371.948806        c -2.91
iter:  41 20:51:39  -371.995756        c -2.85
iter:  42 20:54:28  -371.955181        c -2.89
iter:  43 20:57:20  -371.945543        c -3.08
iter:  44 21:00:11  -371.947875        c -3.16
iter:  45 21:03:02  -371.941176c       c -3.19
iter:  46 21:05:54  -371.960952        c -3.21
iter:  47 21:08:41  -371.929569        c -3.11
iter:  48 21:11:33  -372.040094        c -3.04
iter:  49 21:14:24  -371.939649        c -2.83
iter:  50 21:17:14  -371.933144        c -3.30
iter:  51 21:20:05  -371.936412c       c -3.40
iter:  52 21:22:57  -371.928679        c -3.48
iter:  53 21:25:50  -371.931210        c -3.41
iter:  54 21:28:41  -371.926857c       c -3.52
iter:  55 21:31:32  -371.942089        c -3.14
iter:  56 21:34:21  -371.934049        c -3.39
iter:  57 21:37:12  -371.930045        c -3.60
iter:  58 21:40:03  -371.929929c       c -3.62
iter:  59 21:42:53  -371.929225c       c -3.56
iter:  60 21:45:44  -371.931606c       c -3.77
iter:  61 21:48:35  -371.922918        c -3.73
iter:  62 21:51:27  -371.928165        c -3.45
iter:  63 21:54:18  -371.927225c       c -3.86
iter:  64 21:57:08  -371.940751        c -3.56
iter:  65 21:59:59  -371.926185        c -3.42
iter:  66 22:02:49  -371.926252        c -3.91
iter:  67 22:06:18  -371.929325c       c -3.94
iter:  68 22:09:10  -371.926824c       c -3.86
iter:  69 22:12:00  -371.929376c       c -3.99
iter:  70 22:14:53  -371.925340c       c -4.01c

Converged after 70 iterations.

Dipole moment: (-6.758122, -6.758122, 0.882045) |e|*Ang

Energy contributions relative to reference atoms: (reference = -2372863.453391)

Kinetic:        +28.522105
Potential:      -17.843783
External:        +0.000000
XC:            -380.625454
Entropy (-ST):   -3.833802
Local:           -0.061307
SIC:             +0.000000
--------------------------
Free energy:   -373.842241
Extrapolated:  -371.925340

Showing only first 2 kpts
 Kpt  Band  Eigenvalues  Occupancy
  0   352      0.71064    1.28763
  0   353      0.72969    1.19808
  0   354      0.73502    1.17235
  0   355      0.74131    1.14168

  1   352      0.70531    1.31190
  1   353      0.72983    1.19739
  1   354      0.73646    1.16532
  1   355      0.74847    1.10642


Fermi level: 0.76983

No gap
No difference between direct/indirect transitions
Timing:                              incl.     excl.
-----------------------------------------------------------
Basic WFS set positions:             0.001     0.001   0.0% |
Basis functions set positions:       0.320     0.320   0.0% |
LCAO WFS Initialize:                 1.003     0.388   0.0% |
 Hamiltonian:                        0.615     0.000   0.0% |
  Atomic:                            0.307     0.003   0.0% |
   XC Correction:                    0.303     0.303   0.0% |
  Calculate atomic Hamiltonians:     0.048     0.048   0.0% |
  Communicate:                       0.000     0.000   0.0% |
  Hartree integrate/restrict:        0.012     0.012   0.0% |
  Initialize Hamiltonian:            0.000     0.000   0.0% |
  Poisson:                           0.173     0.014   0.0% |
   Communicate from 1D:              0.025     0.025   0.0% |
   Communicate from 2D:              0.023     0.023   0.0% |
   Communicate to 1D:                0.023     0.023   0.0% |
   Communicate to 2D:                0.027     0.027   0.0% |
   FFT 1D:                           0.016     0.016   0.0% |
   FFT 2D:                           0.045     0.045   0.0% |
  XC 3D grid:                        0.068     0.068   0.0% |
  vbar:                              0.006     0.006   0.0% |
P tci:                               9.177     9.177   0.1% |
SCF-cycle:                       11857.305     0.812   0.0% |
 Density:                         8722.994     0.002   0.0% |
  Atomic density matrices:           5.329     5.329   0.0% |
  Mix:                              19.583    19.583   0.2% |
  Multipole moments:                 0.050     0.050   0.0% |
  Normalize:                         0.015     0.015   0.0% |
  Pseudo density:                 8698.015     0.749   0.0% |
   Calculate density matrix:        22.268    22.268   0.2% |
   Construct density:             8674.686  8674.686  73.0% |----------------------------|
   Symmetrize density:               0.313     0.313   0.0% |
 Hamiltonian:                       42.314     0.007   0.0% |
  Atomic:                           21.123     0.216   0.0% |
   XC Correction:                   20.907    20.907   0.2% |
  Calculate atomic Hamiltonians:     3.041     3.041   0.0% |
  Communicate:                       0.001     0.001   0.0% |
  Hartree integrate/restrict:        1.203     1.203   0.0% |
  Poisson:                          11.041     0.515   0.0% |
   Communicate from 1D:              1.585     1.585   0.0% |
   Communicate from 2D:              1.452     1.452   0.0% |
   Communicate to 1D:                1.686     1.686   0.0% |
   Communicate to 2D:                1.709     1.709   0.0% |
   FFT 1D:                           0.995     0.995   0.0% |
   FFT 2D:                           3.098     3.098   0.0% |
  XC 3D grid:                        5.071     5.071   0.0% |
  vbar:                              0.827     0.827   0.0% |
 LCAO eigensolver:                3091.184     1.587   0.0% |
  Calculate projections:            55.598    55.598   0.5% |
  DenseAtomicCorrection:           272.662   272.662   2.3% ||
  Distribute overlap matrix:         2.555     2.555   0.0% |
  Orbital Layouts:                 329.825   329.825   2.8% ||
  Potential matrix:               2400.331  2400.331  20.2% |-------|
  Sum over cells:                   28.627    28.627   0.2% |
ST tci:                              4.894     4.894   0.0% |
Set symmetry:                        0.001     0.001   0.0% |
TCI: Evaluate splines:               0.706     0.706   0.0% |
mktci:                               0.059     0.059   0.0% |
Other:                               7.129     7.129   0.1% |
-----------------------------------------------------------
Total:                                     11880.595 100.0%

Memory usage: 1.78 GiB
Date: Thu Feb 12 22:14:53 2026
