
  ___ ___ ___ _ _ _  
 |   |   |_  | | | | 
 | | | | | . | | | | 
 |__ |  _|___|_____|  25.7.0
 |___|_|             

User:   ubuntu@third-test
Date:   Thu Feb 12 22:14:53 2026
Arch:   x86_64
Pid:    1539777
CWD:    /mnt/vdd1/work/cemea/fairchem/src/fairchem/applications/ocx/mo_h_adsorption_workflow
Python: 3.10.16
gpaw:   /home/ubuntu/.pyenv/versions/cemea-env/lib/python3.10/site-packages/gpaw
_gpaw:  /home/ubuntu/.pyenv/versions/cemea-env/lib/python3.10/site-packages/
        _gpaw.cpython-310-x86_64-linux-gnu.so
ase:    /home/ubuntu/.pyenv/versions/cemea-env/lib/python3.10/site-packages/ase (version 3.27.0)
numpy:  /home/ubuntu/.pyenv/versions/cemea-env/lib/python3.10/site-packages/numpy (version 2.2.6)
scipy:  /home/ubuntu/.pyenv/versions/cemea-env/lib/python3.10/site-packages/scipy (version 1.15.3)
libxc:  2.x.y
units:  Angstrom and eV
cores: 1
OpenMP: False
OMP_NUM_THREADS: 1

Input parameters:
  basis: dzp
  convergence: {density: 0.0001,
                eigenstates: 1e-05,
                energy: 1e-05}
  kpts: [4 4 1]
  mode: lcao

System changes: positions, numbers, cell, pbc, initial_charges, initial_magmoms 

Initialize ...

species:
  Ni:
    name: Nickel
    id: 1802175e8de9ea26d9f4394ec1a7d564
    Z: 28.0
    valence: 16
    core: 12
    charge: 0.0
    file: /home/ubuntu/.pyenv/versions/cemea-env/lib/python3.10/site-packages/gpaw_data/setups/Ni.LDA.gz
    compensation charges: {type: gauss,
                           rc: 0.36,
                           lmax: 2}
    cutoffs: {filter: 2.14,
              core: 1.98}
    projectors:
      #              energy  rcut
      - 4s(2.00)    -5.858   1.164
      - 3p(6.00)   -71.266   1.207
      - 4p(0.00)    -1.338   1.207
      - 3d(8.00)    -9.141   1.138
      -  s          21.353   1.164
      -  d          18.071   1.138
  
    # LCAO basis set for Ni:
    #   Name: dzp
    #   File: /home/ubuntu/.pyenv/versions/cemea-env/lib/python3.10/site-packages/gpaw_data/setups/Ni.dzp.basis.gz
    #   Number of radial functions: 9
    #   Number of spherical harmonics: 27
    #     l=0, rc=8.5156 Bohr: 4s-sz confined orbital
    #     l=1, rc=2.9375 Bohr: 3p-sz confined orbital
    #     l=1, rc=12.4062 Bohr: 4p-sz confined orbital
    #     l=2, rc=4.6875 Bohr: 3d-sz confined orbital
    #     l=0, rc=4.9688 Bohr: 4s-dz split-valence wave
    #     l=1, rc=2.0781 Bohr: 3p-dz split-valence wave
    #     l=1, rc=7.5469 Bohr: 4p-dz split-valence wave
    #     l=2, rc=2.9375 Bohr: 3d-dz split-valence wave
    #     l=1, rc=8.5156 Bohr: p-type Gaussian polarization
    #   Number of RI-basis functions 0

  Mo:
    name: Molybdenum
    id: ac24daaf086600a00ce6d19a74574df1
    Z: 42.0
    valence: 14
    core: 28
    charge: 0.0
    file: /home/ubuntu/.pyenv/versions/cemea-env/lib/python3.10/site-packages/gpaw_data/setups/Mo.LDA.gz
    compensation charges: {type: gauss,
                           rc: 0.38,
                           lmax: 2}
    cutoffs: {filter: 2.16,
              core: 1.42}
    projectors:
      #              energy  rcut
      - 4s(2.00)   -64.384   1.238
      - 5s(1.00)    -4.319   1.238
      - 4p(6.00)   -38.595   1.296
      - 5p(0.00)    -1.161   1.296
      - 4d(5.00)    -3.933   1.296
      -  d          23.278   1.296
  
    # LCAO basis set for Mo:
    #   Name: dzp
    #   File: /home/ubuntu/.pyenv/versions/cemea-env/lib/python3.10/site-packages/gpaw_data/setups/Mo.dzp.basis.gz
    #   Number of radial functions: 11
    #   Number of spherical harmonics: 29
    #     l=0, rc=3.5469 Bohr: 4s-sz confined orbital
    #     l=0, rc=10.0469 Bohr: 5s-sz confined orbital
    #     l=1, rc=4.0781 Bohr: 4p-sz confined orbital
    #     l=1, rc=14.0938 Bohr: 5p-sz confined orbital
    #     l=2, rc=7.2031 Bohr: 4d-sz confined orbital
    #     l=0, rc=2.1250 Bohr: 4s-dz split-valence wave
    #     l=0, rc=6.1250 Bohr: 5s-dz split-valence wave
    #     l=1, rc=2.5469 Bohr: 4p-dz split-valence wave
    #     l=1, rc=8.7656 Bohr: 5p-dz split-valence wave
    #     l=2, rc=4.2344 Bohr: 4d-dz split-valence wave
    #     l=1, rc=10.0469 Bohr: p-type Gaussian polarization
    #   Number of RI-basis functions 0

  N:
    name: Nitrogen
    id: c467cdfa1b75f62c8f7a0469921b1cfb
    Z: 7.0
    valence: 5
    core: 2
    charge: 0.0
    file: /home/ubuntu/.pyenv/versions/cemea-env/lib/python3.10/site-packages/gpaw_data/setups/N.LDA.gz
    compensation charges: {type: gauss,
                           rc: 0.18,
                           lmax: 2}
    cutoffs: {filter: 1.11,
              core: 0.96}
    projectors:
      #              energy  rcut
      - 2s(2.00)   -18.420   0.603
      - 2p(3.00)    -7.237   0.529
      -  s           8.791   0.603
      -  p          19.974   0.529
      -  d           0.000   0.577
  
    # LCAO basis set for N:
    #   Name: dzp
    #   File: /home/ubuntu/.pyenv/versions/cemea-env/lib/python3.10/site-packages/gpaw_data/setups/N.dzp.basis.gz
    #   Number of radial functions: 5
    #   Number of spherical harmonics: 13
    #     l=0, rc=4.8594 Bohr: 2s-sz confined orbital
    #     l=1, rc=6.0625 Bohr: 2p-sz confined orbital
    #     l=0, rc=2.6094 Bohr: 2s-dz split-valence wave
    #     l=1, rc=3.2656 Bohr: 2p-dz split-valence wave
    #     l=2, rc=6.0625 Bohr: d-type Gaussian polarization
    #   Number of RI-basis functions 0

  H:
    name: Hydrogen
    id: 4766778ce56282eaa64abeb28b7c1de3
    Z: 1.0
    valence: 1
    core: 0
    charge: 0.0
    file: /home/ubuntu/.pyenv/versions/cemea-env/lib/python3.10/site-packages/gpaw_data/setups/H.LDA.gz
    compensation charges: {type: gauss,
                           rc: 0.15,
                           lmax: 2}
    cutoffs: {filter: 0.85,
              core: 0.53}
    projectors:
      #              energy  rcut
      - 1s(1.00)    -6.353   0.476
      -  s          20.858   0.476
      -  p           0.000   0.476
  
    # LCAO basis set for H:
    #   Name: dzp
    #   File: /home/ubuntu/.pyenv/versions/cemea-env/lib/python3.10/site-packages/gpaw_data/setups/H.dzp.basis.gz
    #   Number of radial functions: 3
    #   Number of spherical harmonics: 5
    #     l=0, rc=6.4219 Bohr: 1s-sz confined orbital
    #     l=0, rc=3.6094 Bohr: 1s-dz split-valence wave
    #     l=1, rc=6.4219 Bohr: p-type Gaussian polarization
    #   Number of RI-basis functions 0

Reference energy: -2372875.582349  # eV

Spin-paired calculation

Convergence criteria:
 Maximum [total energy] change in last 3 cyles: 1e-05 eV / valence electron
 Maximum integral of absolute [dens]ity change: 0.0001 electrons / valence electron
 Maximum integral of absolute [eigenst]ate change: 1e-05 eV^2 / valence electron
 Maximum number of scf [iter]ations: 333
 (Square brackets indicate name in SCF output, whereas a 'c' in
 the SCF output indicates the quantity has converged.)

Symmetries present (total): 2

  ( 1  0  0)  ( 0  1  0)
  ( 0  1  0)  ( 1  0  0)
  ( 0  0  1)  ( 0  0  1)

16 k-points: 4 x 4 x 1 Monkhorst-Pack grid
6 k-points in the irreducible part of the Brillouin zone
       k-points in crystal coordinates                weights
   0:     0.12500000   -0.12500000    0.00000000          2/16
   1:     0.12500000    0.12500000    0.00000000          2/16
   2:     0.37500000   -0.37500000    0.00000000          2/16
   3:     0.37500000   -0.12500000    0.00000000          4/16
   4:     0.37500000    0.12500000    0.00000000          4/16
   5:     0.37500000    0.37500000    0.00000000          2/16

Wave functions: LCAO
  Diagonalizer: Serial LAPACK
  Atomic Correction: dense with blas
  Data-type: complex
 

Occupation numbers: Fermi-Dirac:
  width: 0.1000  # eV
 

Eigensolver
   LCAO using direct dense diagonalizer 

Densities:
  Coarse grid: 36*36*128 grid
  Fine grid: 72*72*256 grid
  Total Charge: 0.000000 

Density mixing:
  Method: separate
  Backend: pulay
  Linear mixing parameter: 0.05
  old densities: 5
  Damping of long wavelength oscillations: 50 

Hamiltonian:
  XC and Coulomb potentials evaluated on a 72*72*256 grid
  Using the LDA Exchange-Correlation functional
  Interpolation: tri-quintic (5. degree polynomial)
  Poisson solver: FastPoissonSolver using
    Stencil: 6*3+1=19 point O(h^6) finite-difference Laplacian
    FFT axes: [np.int64(0), np.int64(1), np.int64(2)]
    FST axes: []
 

Memory estimate:
  Process memory now: 1820.88 MiB
  Calculator: 889.85 MiB
    Density: 221.64 MiB
      Arrays: 32.91 MiB
      Localized functions: 176.08 MiB
      Mixer: 12.66 MiB
    Hamiltonian: 34.59 MiB
      Arrays: 21.52 MiB
      XC: 0.00 MiB
      Poisson: 0.00 MiB
      vbar: 13.08 MiB
    Wavefunctions: 633.61 MiB
      C [qnM]: 49.64 MiB
      S, T [2 x qmm]: 291.16 MiB
      P [aqMi]: 6.13 MiB
      BasisFunctions: 286.68 MiB
      Eigensolver: 0.00 MiB

Total number of cores used: 1

Number of atoms: 49
Number of atomic orbitals: 1261
Number of bands in calculation: 430
Number of valence electrons: 709
Bands to converge: occupied

... initialized

Initializing position-dependent things.

Density initialized from atomic densities
      .-----------------.  
     /|                 |  
    / |                 |  
   /  |                 |  
  /   |                 |  
 *    |                 |  
 |    |                 |  
 |    |                 |  
 |    |                 |  
 |    |                 |  
 |    |                 |  
 |    |   MH        Mo  |  
 |    |                 |  
 |    |Mo N      Mo N   |  
 |  Mo|       Mo        |  
 |    |                 |  
 |    |N         N      |  
 Mo Ni|   NMo   Ni      |  
 | Ni | NNi   NNi   Ni  |  
 |    |                 |  
 Ni   NNi   NNi   Ni    |  
 |  NNi   NNi   NNi     |  
 | Ni | NNi   NNi   Ni  |  
 |    |                 |  
 Ni   NNi   NNi   Ni    |  
 |   Ni    Ni    Ni     |  
 |    |                 |  
 |    |                 |  
 |    |                 |  
 |    |                 |  
 |    |                 |  
 |    .-----------------.  
 |   /                 /   
 |  /                 /    
 | /                 /     
 |/                 /      
 *-----------------*       

Atomic positions and initial magnetic moments

Positions:
   0 Ni     1.244508    1.244508    8.000000    ( 0.0000,  0.0000,  0.0000)
   1 Ni     3.733524    1.244508    8.000000    ( 0.0000,  0.0000,  0.0000)
   2 Ni     6.222540    1.244508    8.000000    ( 0.0000,  0.0000,  0.0000)
   3 Ni     1.244508    3.733524    8.000000    ( 0.0000,  0.0000,  0.0000)
   4 Ni     3.733524    3.733524    8.000000    ( 0.0000,  0.0000,  0.0000)
   5 Ni     6.222540    3.733524    8.000000    ( 0.0000,  0.0000,  0.0000)
   6 Ni     1.244508    6.222540    8.000000    ( 0.0000,  0.0000,  0.0000)
   7 Ni     3.733524    6.222540    8.000000    ( 0.0000,  0.0000,  0.0000)
   8 Ni     6.222540    6.222540    8.000000    ( 0.0000,  0.0000,  0.0000)
   9 Ni     0.000000    0.000000    9.760000    ( 0.0000,  0.0000,  0.0000)
  10 Ni     2.489016    0.000000    9.760000    ( 0.0000,  0.0000,  0.0000)
  11 Ni     4.978032    0.000000    9.760000    ( 0.0000,  0.0000,  0.0000)
  12 Ni     0.000000    2.489016    9.760000    ( 0.0000,  0.0000,  0.0000)
  13 Ni     2.489016    2.489016    9.760000    ( 0.0000,  0.0000,  0.0000)
  14 Ni     4.978032    2.489016    9.760000    ( 0.0000,  0.0000,  0.0000)
  15 Ni     0.000000    4.978032    9.760000    ( 0.0000,  0.0000,  0.0000)
  16 Ni     2.489016    4.978032    9.760000    ( 0.0000,  0.0000,  0.0000)
  17 Ni     4.978032    4.978032    9.760000    ( 0.0000,  0.0000,  0.0000)
  18 Ni     1.244508    1.244508   11.520000    ( 0.0000,  0.0000,  0.0000)
  19 Ni     3.733524    1.244508   11.520000    ( 0.0000,  0.0000,  0.0000)
  20 Ni     6.222540    1.244508   11.520000    ( 0.0000,  0.0000,  0.0000)
  21 Ni     1.244508    3.733524   11.520000    ( 0.0000,  0.0000,  0.0000)
  22 Ni     3.733524    3.733524   11.520000    ( 0.0000,  0.0000,  0.0000)
  23 Ni     6.222540    3.733524   11.520000    ( 0.0000,  0.0000,  0.0000)
  24 Ni     1.244508    6.222540   11.520000    ( 0.0000,  0.0000,  0.0000)
  25 Ni     3.733524    6.222540   11.520000    ( 0.0000,  0.0000,  0.0000)
  26 Ni     6.222540    6.222540   11.520000    ( 0.0000,  0.0000,  0.0000)
  27 Ni     0.000000    0.000000   13.280000    ( 0.0000,  0.0000,  0.0000)
  28 Ni     2.489016    0.000000   13.280000    ( 0.0000,  0.0000,  0.0000)
  29 Ni     4.978032    0.000000   13.280000    ( 0.0000,  0.0000,  0.0000)
  30 Ni     0.000000    2.489016   13.280000    ( 0.0000,  0.0000,  0.0000)
  31 Ni     2.489016    2.489016   13.280000    ( 0.0000,  0.0000,  0.0000)
  32 Ni     4.978032    2.489016   13.280000    ( 0.0000,  0.0000,  0.0000)
  33 Ni     0.000000    4.978032   13.280000    ( 0.0000,  0.0000,  0.0000)
  34 Ni     2.489016    4.978032   13.280000    ( 0.0000,  0.0000,  0.0000)
  35 Ni     4.978032    4.978032   13.280000    ( 0.0000,  0.0000,  0.0000)
  36 Mo     0.000000    0.000000   15.480000    ( 0.0000,  0.0000,  0.0000)
  37 Mo     2.080000    2.080000   17.560000    ( 0.0000,  0.0000,  0.0000)
  38 N      2.080000    2.080000   15.480000    ( 0.0000,  0.0000,  0.0000)
  39 Mo     0.000000    4.160000   15.480000    ( 0.0000,  0.0000,  0.0000)
  40 Mo     2.080000    6.240000   17.560000    ( 0.0000,  0.0000,  0.0000)
  41 N      2.080000    6.240000   15.480000    ( 0.0000,  0.0000,  0.0000)
  42 Mo     4.160000    0.000000   15.480000    ( 0.0000,  0.0000,  0.0000)
  43 Mo     6.240000    2.080000   17.560000    ( 0.0000,  0.0000,  0.0000)
  44 N      6.240000    2.080000   15.480000    ( 0.0000,  0.0000,  0.0000)
  45 Mo     4.160000    4.160000   15.480000    ( 0.0000,  0.0000,  0.0000)
  46 Mo     6.240000    6.240000   17.560000    ( 0.0000,  0.0000,  0.0000)
  47 N      6.240000    6.240000   15.480000    ( 0.0000,  0.0000,  0.0000)
  48 H      3.200119    3.200119   19.060000    ( 0.0000,  0.0000,  0.0000)

Unit cell:
           periodic     x           y           z      points  spacing
  1. axis:    yes    7.467048    0.000000    0.000000    36     0.2074
  2. axis:    yes    0.000000    7.467048    0.000000    36     0.2074
  3. axis:    yes    0.000000    0.000000   25.560000   128     0.1997

  Lengths:   7.467048   7.467048  25.560000
  Angles:   90.000000  90.000000  90.000000

Effective grid spacing dv^(1/3) = 0.2048

     iter     time        total  log10-change:
                         energy   eigst   dens
iter:   1 22:16:05 -1091.999620        c
iter:   2 22:18:58 -2329.553188        c -0.96
iter:   3 22:21:49 -1027.506469        c -0.56
iter:   4 22:24:40  -743.517726        c -0.93
iter:   5 22:27:30  -599.404702        c -1.11
iter:   6 22:30:20  -534.640346        c -1.21
iter:   7 22:33:10  -469.308702        c -1.29
iter:   8 22:35:58  -737.814462        c -1.39
iter:   9 22:38:50  -479.934783        c -0.96
iter:  10 22:41:41  -422.601806        c -1.40
iter:  11 22:44:30  -438.337483        c -1.52
iter:  12 22:47:18  -402.793515        c -1.48
iter:  13 22:50:08  -397.483565        c -1.64
iter:  14 22:52:59  -462.176807        c -1.65
iter:  15 22:55:50  -393.832250        c -1.21
iter:  16 22:58:40  -386.580845        c -1.69
iter:  17 23:01:29  -391.566933        c -1.74
iter:  18 23:04:20  -413.858299        c -1.63
iter:  19 23:07:12  -399.296529        c -1.55
iter:  20 23:10:03  -489.964120        c -1.65
iter:  21 23:12:55  -394.299109        c -1.16
iter:  22 23:15:45  -392.668595        c -1.66
iter:  23 23:18:39  -392.299040        c -1.72
iter:  24 23:21:30  -392.529120        c -1.72
iter:  25 23:24:23  -391.315779        c -1.72
iter:  26 23:27:17  -473.906348        c -1.75
iter:  27 23:30:10  -393.922280        c -1.20
iter:  28 23:33:00  -399.222933        c -1.71
iter:  29 23:35:51  -396.915493        c -1.68
iter:  30 23:38:44  -388.402580        c -1.73
iter:  31 23:41:35  -382.067722        c -1.93
iter:  32 23:44:24  -399.793186        c -1.91
iter:  33 23:47:16  -385.299626        c -1.50
iter:  34 23:50:06  -379.116024        c -1.95
iter:  35 23:52:57  -376.933929        c -2.12
iter:  36 23:55:50  -377.390943        c -2.11
iter:  37 23:58:40  -376.792252        c -2.17
iter:  38 00:01:33  -377.039349        c -2.16
iter:  39 00:04:26  -376.465994        c -2.08
iter:  40 00:07:15  -376.459838        c -2.30
iter:  41 00:10:05  -376.189798        c -2.36
iter:  42 00:12:57  -375.485643        c -2.44
iter:  43 00:15:47  -375.784649        c -2.62
iter:  44 00:18:38  -376.341739        c -2.52
iter:  45 00:21:30  -375.648580        c -2.31
iter:  46 00:24:20  -376.483420        c -2.60
iter:  47 00:27:10  -375.488648        c -2.26
iter:  48 00:30:02  -375.478572        c -2.77
iter:  49 00:32:52  -375.456992        c -2.78
iter:  50 00:35:43  -375.420505        c -2.80
iter:  51 00:38:35  -375.598888        c -2.89
iter:  52 00:41:24  -375.432352        c -2.64
iter:  53 00:44:16  -375.598013        c -2.64
iter:  54 00:47:05  -375.415591        c -2.62
iter:  55 00:49:54  -375.435157        c -2.83
iter:  56 00:52:45  -375.395707        c -2.75
iter:  57 00:55:35  -375.374636        c -3.02
iter:  58 00:58:27  -375.448677        c -3.16
iter:  59 01:01:16  -375.362151        c -2.89
iter:  60 01:04:08  -375.393553        c -3.07
iter:  61 01:07:01  -375.373392        c -3.18
iter:  62 01:09:54  -375.363988        c -3.40
iter:  63 01:12:43  -375.360940        c -3.25
iter:  64 01:15:35  -375.376880        c -3.32
iter:  65 01:18:26  -375.361298        c -3.27
iter:  66 01:21:18  -375.360264        c -3.50
iter:  67 01:24:06  -375.360136c       c -3.53
iter:  68 01:26:55  -375.380399        c -3.51
iter:  69 01:29:46  -375.367768        c -3.32
iter:  70 01:32:36  -375.361782        c -3.62
iter:  71 01:35:28  -375.378086        c -3.15
iter:  72 01:38:18  -375.361870        c -3.33
iter:  73 01:41:09  -375.361861        c -3.81
iter:  74 01:44:02  -375.359427c       c -3.81
iter:  75 01:46:51  -375.361036c       c -3.74
iter:  76 01:49:43  -375.368237        c -3.92
iter:  77 01:52:34  -375.357602        c -3.63
iter:  78 01:55:25  -375.361296        c -3.32
iter:  79 01:58:16  -375.360708c       c -3.99
iter:  80 02:01:07  -375.360362c       c -3.97
iter:  81 02:03:58  -375.359868c       c -3.82
iter:  82 02:06:49  -375.359207c       c -4.09c

Converged after 82 iterations.

Dipole moment: (-6.681189, -6.681189, 0.600981) |e|*Ang

Energy contributions relative to reference atoms: (reference = -2372875.582349)

Kinetic:        +25.445060
Potential:      -16.730602
External:        +0.000000
XC:            -382.113779
Entropy (-ST):   -3.820938
Local:           -0.049417
SIC:             +0.000000
--------------------------
Free energy:   -377.269676
Extrapolated:  -375.359207

Showing only first 2 kpts
 Kpt  Band  Eigenvalues  Occupancy
  0   352      0.60096    1.30050
  0   353      0.60581    1.27831
  0   354      0.62817    1.17228
  0   355      0.63301    1.14870

  1   352      0.59705    1.31821
  1   353      0.60473    1.28327
  1   354      0.62287    1.19789
  1   355      0.63041    1.16139


Fermi level: 0.66298

No gap
No difference between direct/indirect transitions
Timing:                              incl.     excl.
-----------------------------------------------------------
Basic WFS set positions:             0.001     0.001   0.0% |
Basis functions set positions:       0.411     0.411   0.0% |
LCAO WFS Initialize:                 0.805     0.221   0.0% |
 Hamiltonian:                        0.583     0.000   0.0% |
  Atomic:                            0.311     0.003   0.0% |
   XC Correction:                    0.308     0.308   0.0% |
  Calculate atomic Hamiltonians:     0.039     0.039   0.0% |
  Communicate:                       0.000     0.000   0.0% |
  Hartree integrate/restrict:        0.012     0.012   0.0% |
  Initialize Hamiltonian:            0.000     0.000   0.0% |
  Poisson:                           0.147     0.007   0.0% |
   Communicate from 1D:              0.021     0.021   0.0% |
   Communicate from 2D:              0.019     0.019   0.0% |
   Communicate to 1D:                0.023     0.023   0.0% |
   Communicate to 2D:                0.023     0.023   0.0% |
   FFT 1D:                           0.012     0.012   0.0% |
   FFT 2D:                           0.042     0.042   0.0% |
  XC 3D grid:                        0.067     0.067   0.0% |
  vbar:                              0.006     0.006   0.0% |
P tci:                              10.398    10.398   0.1% |
SCF-cycle:                       13892.530     0.915   0.0% |
 Density:                        10321.789     0.003   0.0% |
  Atomic density matrices:           6.057     6.057   0.0% |
  Mix:                              23.189    23.189   0.2% |
  Multipole moments:                 0.058     0.058   0.0% |
  Normalize:                         0.017     0.017   0.0% |
  Pseudo density:                10292.466     0.902   0.0% |
   Calculate density matrix:        27.657    27.657   0.2% |
   Construct density:            10263.542 10263.542  73.8% |-----------------------------|
   Symmetrize density:               0.365     0.365   0.0% |
 Hamiltonian:                       50.629     0.009   0.0% |
  Atomic:                           25.142     0.263   0.0% |
   XC Correction:                   24.879    24.879   0.2% |
  Calculate atomic Hamiltonians:     3.580     3.580   0.0% |
  Communicate:                       0.001     0.001   0.0% |
  Hartree integrate/restrict:        1.440     1.440   0.0% |
  Poisson:                          13.274     0.653   0.0% |
   Communicate from 1D:              1.890     1.890   0.0% |
   Communicate from 2D:              1.729     1.729   0.0% |
   Communicate to 1D:                1.995     1.995   0.0% |
   Communicate to 2D:                1.995     1.995   0.0% |
   FFT 1D:                           1.145     1.145   0.0% |
   FFT 2D:                           3.869     3.869   0.0% |
  XC 3D grid:                        6.275     6.275   0.0% |
  vbar:                              0.908     0.908   0.0% |
 LCAO eigensolver:                3519.197     1.900   0.0% |
  Calculate projections:            61.872    61.872   0.4% |
  DenseAtomicCorrection:           331.532   331.532   2.4% ||
  Distribute overlap matrix:         3.606     3.606   0.0% |
  Orbital Layouts:                 348.869   348.869   2.5% ||
  Potential matrix:               2736.461  2736.461  19.7% |-------|
  Sum over cells:                   34.959    34.959   0.3% |
ST tci:                              5.056     5.056   0.0% |
Set symmetry:                        0.001     0.001   0.0% |
TCI: Evaluate splines:               0.821     0.821   0.0% |
mktci:                               0.062     0.062   0.0% |
Other:                               6.542     6.542   0.0% |
-----------------------------------------------------------
Total:                                     13916.627 100.0%

Memory usage: 1.78 GiB
Date: Fri Feb 13 02:06:49 2026
