
  ___ ___ ___ _ _ _  
 |   |   |_  | | | | 
 | | | | | . | | | | 
 |__ |  _|___|_____|  25.7.0
 |___|_|             

User:   mikei@Z790-AORUS-ELITE-AX
Date:   Sun Feb 22 21:05:03 2026
Arch:   x86_64
Pid:    89048
CWD:    /home/mikei/Dokumenty/code/cemea/ocx
Python: 3.10.16
gpaw:   /home/mikei/.pyenv/versions/cemea-env/lib/python3.10/site-packages/gpaw
_gpaw:  /home/mikei/.pyenv/versions/cemea-env/lib/python3.10/site-packages/
        _gpaw.cpython-310-x86_64-linux-gnu.so
ase:    /home/mikei/.pyenv/versions/cemea-env/lib/python3.10/site-packages/ase (version 3.27.0)
numpy:  /home/mikei/.pyenv/versions/cemea-env/lib/python3.10/site-packages/numpy (version 2.2.6)
scipy:  /home/mikei/.pyenv/versions/cemea-env/lib/python3.10/site-packages/scipy (version 1.15.3)
libxc:  2.x.y
units:  Angstrom and eV
cores: 1
OpenMP: False
OMP_NUM_THREADS: 1

Input parameters:
  basis: dzp
  convergence: {density: 0.0001,
                eigenstates: 1e-05,
                energy: 1e-05}
  kpts: [4 4 1]
  mode: lcao

System changes: positions, numbers, cell, pbc, initial_charges, initial_magmoms 

Initialize ...

species:
  Ni:
    name: Nickel
    id: 1802175e8de9ea26d9f4394ec1a7d564
    Z: 28.0
    valence: 16
    core: 12
    charge: 0.0
    file: /home/mikei/.pyenv/versions/cemea-env/lib/python3.10/site-packages/gpaw_data/setups/Ni.LDA.gz
    compensation charges: {type: gauss,
                           rc: 0.36,
                           lmax: 2}
    cutoffs: {filter: 2.14,
              core: 1.98}
    projectors:
      #              energy  rcut
      - 4s(2.00)    -5.858   1.164
      - 3p(6.00)   -71.266   1.207
      - 4p(0.00)    -1.338   1.207
      - 3d(8.00)    -9.141   1.138
      -  s          21.353   1.164
      -  d          18.071   1.138
  
    # LCAO basis set for Ni:
    #   Name: dzp
    #   File: /home/mikei/.pyenv/versions/cemea-env/lib/python3.10/site-packages/gpaw_data/setups/Ni.dzp.basis.gz
    #   Number of radial functions: 9
    #   Number of spherical harmonics: 27
    #     l=0, rc=8.5156 Bohr: 4s-sz confined orbital
    #     l=1, rc=2.9375 Bohr: 3p-sz confined orbital
    #     l=1, rc=12.4062 Bohr: 4p-sz confined orbital
    #     l=2, rc=4.6875 Bohr: 3d-sz confined orbital
    #     l=0, rc=4.9688 Bohr: 4s-dz split-valence wave
    #     l=1, rc=2.0781 Bohr: 3p-dz split-valence wave
    #     l=1, rc=7.5469 Bohr: 4p-dz split-valence wave
    #     l=2, rc=2.9375 Bohr: 3d-dz split-valence wave
    #     l=1, rc=8.5156 Bohr: p-type Gaussian polarization
    #   Number of RI-basis functions 0

  Mo:
    name: Molybdenum
    id: ac24daaf086600a00ce6d19a74574df1
    Z: 42.0
    valence: 14
    core: 28
    charge: 0.0
    file: /home/mikei/.pyenv/versions/cemea-env/lib/python3.10/site-packages/gpaw_data/setups/Mo.LDA.gz
    compensation charges: {type: gauss,
                           rc: 0.38,
                           lmax: 2}
    cutoffs: {filter: 2.16,
              core: 1.42}
    projectors:
      #              energy  rcut
      - 4s(2.00)   -64.384   1.238
      - 5s(1.00)    -4.319   1.238
      - 4p(6.00)   -38.595   1.296
      - 5p(0.00)    -1.161   1.296
      - 4d(5.00)    -3.933   1.296
      -  d          23.278   1.296
  
    # LCAO basis set for Mo:
    #   Name: dzp
    #   File: /home/mikei/.pyenv/versions/cemea-env/lib/python3.10/site-packages/gpaw_data/setups/Mo.dzp.basis.gz
    #   Number of radial functions: 11
    #   Number of spherical harmonics: 29
    #     l=0, rc=3.5469 Bohr: 4s-sz confined orbital
    #     l=0, rc=10.0469 Bohr: 5s-sz confined orbital
    #     l=1, rc=4.0781 Bohr: 4p-sz confined orbital
    #     l=1, rc=14.0938 Bohr: 5p-sz confined orbital
    #     l=2, rc=7.2031 Bohr: 4d-sz confined orbital
    #     l=0, rc=2.1250 Bohr: 4s-dz split-valence wave
    #     l=0, rc=6.1250 Bohr: 5s-dz split-valence wave
    #     l=1, rc=2.5469 Bohr: 4p-dz split-valence wave
    #     l=1, rc=8.7656 Bohr: 5p-dz split-valence wave
    #     l=2, rc=4.2344 Bohr: 4d-dz split-valence wave
    #     l=1, rc=10.0469 Bohr: p-type Gaussian polarization
    #   Number of RI-basis functions 0

  C:
    name: Carbon
    id: d60576a1f549371a163e72552ca58787
    Z: 6.0
    valence: 4
    core: 2
    charge: 0.0
    file: /home/mikei/.pyenv/versions/cemea-env/lib/python3.10/site-packages/gpaw_data/setups/C.LDA.gz
    compensation charges: {type: gauss,
                           rc: 0.20,
                           lmax: 2}
    cutoffs: {filter: 1.14,
              core: 1.14}
    projectors:
      #              energy  rcut
      - 2s(2.00)   -13.639   0.635
      - 2p(2.00)    -5.414   0.635
      -  s          13.573   0.635
      -  p          21.797   0.635
      -  d           0.000   0.635
  
    # LCAO basis set for C:
    #   Name: dzp
    #   File: /home/mikei/.pyenv/versions/cemea-env/lib/python3.10/site-packages/gpaw_data/setups/C.dzp.basis.gz
    #   Number of radial functions: 5
    #   Number of spherical harmonics: 13
    #     l=0, rc=5.5469 Bohr: 2s-sz confined orbital
    #     l=1, rc=6.6719 Bohr: 2p-sz confined orbital
    #     l=0, rc=3.0312 Bohr: 2s-dz split-valence wave
    #     l=1, rc=3.7500 Bohr: 2p-dz split-valence wave
    #     l=2, rc=6.6719 Bohr: d-type Gaussian polarization
    #   Number of RI-basis functions 0

  Ru:
    name: Ruthenium
    id: ee1c9ca112952e47c1459e90f4850566
    Z: 44.0
    valence: 16
    core: 28
    charge: 0.0
    file: /home/mikei/.pyenv/versions/cemea-env/lib/python3.10/site-packages/gpaw_data/setups/Ru.LDA.gz
    compensation charges: {type: gauss,
                           rc: 0.39,
                           lmax: 2}
    cutoffs: {filter: 2.16,
              core: 1.30}
    projectors:
      #              energy  rcut
      - 4s(2.00)   -76.385   1.281
      - 5s(1.00)    -4.507   1.281
      - 4p(6.00)   -46.536   1.286
      - 5p(0.00)    -1.033   1.286
      - 4d(7.00)    -5.402   1.254
      -  d          21.810   1.254
  
    # LCAO basis set for Ru:
    #   Name: dzp
    #   File: /home/mikei/.pyenv/versions/cemea-env/lib/python3.10/site-packages/gpaw_data/setups/Ru.dzp.basis.gz
    #   Number of radial functions: 11
    #   Number of spherical harmonics: 29
    #     l=0, rc=3.2969 Bohr: 4s-sz confined orbital
    #     l=0, rc=9.6875 Bohr: 5s-sz confined orbital
    #     l=1, rc=3.7656 Bohr: 4p-sz confined orbital
    #     l=1, rc=14.0938 Bohr: 5p-sz confined orbital
    #     l=2, rc=6.3281 Bohr: 4d-sz confined orbital
    #     l=0, rc=2.0781 Bohr: 4s-dz split-valence wave
    #     l=0, rc=5.8281 Bohr: 5s-dz split-valence wave
    #     l=1, rc=2.4219 Bohr: 4p-dz split-valence wave
    #     l=1, rc=8.7031 Bohr: 5p-dz split-valence wave
    #     l=2, rc=3.7500 Bohr: 4d-dz split-valence wave
    #     l=1, rc=9.6875 Bohr: p-type Gaussian polarization
    #   Number of RI-basis functions 0

Reference energy: -2617301.995678  # eV

Spin-paired calculation

Convergence criteria:
 Maximum [total energy] change in last 3 cyles: 1e-05 eV / valence electron
 Maximum integral of absolute [dens]ity change: 0.0001 electrons / valence electron
 Maximum integral of absolute [eigenst]ate change: 1e-05 eV^2 / valence electron
 Maximum number of scf [iter]ations: 333
 (Square brackets indicate name in SCF output, whereas a 'c' in
 the SCF output indicates the quantity has converged.)

Symmetries present (total): 1

  ( 1  0  0)
  ( 0  1  0)
  ( 0  0  1)

16 k-points: 4 x 4 x 1 Monkhorst-Pack grid
8 k-points in the irreducible part of the Brillouin zone
       k-points in crystal coordinates                weights
   0:     0.12500000   -0.37500000    0.00000000          2/16
   1:     0.12500000   -0.12500000    0.00000000          2/16
   2:     0.12500000    0.12500000    0.00000000          2/16
   3:     0.12500000    0.37500000    0.00000000          2/16
   4:     0.37500000   -0.37500000    0.00000000          2/16
   5:     0.37500000   -0.12500000    0.00000000          2/16
   6:     0.37500000    0.12500000    0.00000000          2/16
   7:     0.37500000    0.37500000    0.00000000          2/16

Wave functions: LCAO
  Diagonalizer: Serial LAPACK
  Atomic Correction: dense with blas
  Data-type: complex
 

Occupation numbers: Fermi-Dirac:
  width: 0.1000  # eV
 

Eigensolver
   LCAO using direct dense diagonalizer 

Densities:
  Coarse grid: 36*36*128 grid
  Fine grid: 72*72*256 grid
  Total Charge: 0.000000 

Density mixing:
  Method: separate
  Backend: pulay
  Linear mixing parameter: 0.05
  old densities: 5
  Damping of long wavelength oscillations: 50 

Hamiltonian:
  XC and Coulomb potentials evaluated on a 72*72*256 grid
  Using the LDA Exchange-Correlation functional
  Interpolation: tri-quintic (5. degree polynomial)
  Poisson solver: FastPoissonSolver using
    Stencil: 6*3+1=19 point O(h^6) finite-difference Laplacian
    FFT axes: [np.int64(0), np.int64(1), np.int64(2)]
    FST axes: []
 

Memory estimate:
  Process memory now: 4595.48 MiB
  Calculator: 1073.61 MiB
    Density: 231.01 MiB
      Arrays: 32.91 MiB
      Localized functions: 185.45 MiB
      Mixer: 12.66 MiB
    Hamiltonian: 35.20 MiB
      Arrays: 21.52 MiB
      XC: 0.00 MiB
      Poisson: 0.00 MiB
      vbar: 13.68 MiB
    Wavefunctions: 807.40 MiB
      C [qnM]: 71.54 MiB
      S, T [2 x qmm]: 421.53 MiB
      P [aqMi]: 8.82 MiB
      BasisFunctions: 305.51 MiB
      Eigensolver: 0.00 MiB

Total number of cores used: 1

Number of atoms: 50
Number of atomic orbitals: 1314
Number of bands in calculation: 446
Number of valence electrons: 736
Bands to converge: occupied

... initialized

Initializing position-dependent things.

Density initialized from atomic densities
      .-----------------.  
     /|                 |  
    / |                 |  
   /  |                 |  
  /   |                 |  
 *    |                 |  
 |    |                 |  
 |    |                 |  
 |    |                 |  
 |    |                 |  
 |    | Ru    Ru        |  
 |    |   Mo        Mo  |  
 |    |                 |  
 |    |Mo C      Mo C   |  
 |  Mo|       Mo        |  
 |    |                 |  
 |    |C         C      |  
 Mo Ni|   NMo   Ni      |  
 | Ni | NNi   NNi   Ni  |  
 |    |                 |  
 Ni   NNi   NNi   Ni    |  
 |  NNi   NNi   NNi     |  
 | Ni | NNi   NNi   Ni  |  
 |    |                 |  
 Ni   NNi   NNi   Ni    |  
 |   Ni    Ni    Ni     |  
 |    |                 |  
 |    |                 |  
 |    |                 |  
 |    |                 |  
 |    |                 |  
 |    .-----------------.  
 |   /                 /   
 |  /                 /    
 | /                 /     
 |/                 /      
 *-----------------*       

Atomic positions and initial magnetic moments

Positions:
   0 Ni     1.244508    1.244508    8.000000    ( 0.0000,  0.0000,  0.0000)
   1 Ni     3.733524    1.244508    8.000000    ( 0.0000,  0.0000,  0.0000)
   2 Ni     6.222540    1.244508    8.000000    ( 0.0000,  0.0000,  0.0000)
   3 Ni     1.244508    3.733524    8.000000    ( 0.0000,  0.0000,  0.0000)
   4 Ni     3.733524    3.733524    8.000000    ( 0.0000,  0.0000,  0.0000)
   5 Ni     6.222540    3.733524    8.000000    ( 0.0000,  0.0000,  0.0000)
   6 Ni     1.244508    6.222540    8.000000    ( 0.0000,  0.0000,  0.0000)
   7 Ni     3.733524    6.222540    8.000000    ( 0.0000,  0.0000,  0.0000)
   8 Ni     6.222540    6.222540    8.000000    ( 0.0000,  0.0000,  0.0000)
   9 Ni     0.000000    0.000000    9.760000    ( 0.0000,  0.0000,  0.0000)
  10 Ni     2.489016    0.000000    9.760000    ( 0.0000,  0.0000,  0.0000)
  11 Ni     4.978032    0.000000    9.760000    ( 0.0000,  0.0000,  0.0000)
  12 Ni     0.000000    2.489016    9.760000    ( 0.0000,  0.0000,  0.0000)
  13 Ni     2.489016    2.489016    9.760000    ( 0.0000,  0.0000,  0.0000)
  14 Ni     4.978032    2.489016    9.760000    ( 0.0000,  0.0000,  0.0000)
  15 Ni     0.000000    4.978032    9.760000    ( 0.0000,  0.0000,  0.0000)
  16 Ni     2.489016    4.978032    9.760000    ( 0.0000,  0.0000,  0.0000)
  17 Ni     4.978032    4.978032    9.760000    ( 0.0000,  0.0000,  0.0000)
  18 Ni     1.244508    1.244508   11.520000    ( 0.0000,  0.0000,  0.0000)
  19 Ni     3.733524    1.244508   11.520000    ( 0.0000,  0.0000,  0.0000)
  20 Ni     6.222540    1.244508   11.520000    ( 0.0000,  0.0000,  0.0000)
  21 Ni     1.244508    3.733524   11.520000    ( 0.0000,  0.0000,  0.0000)
  22 Ni     3.733524    3.733524   11.520000    ( 0.0000,  0.0000,  0.0000)
  23 Ni     6.222540    3.733524   11.520000    ( 0.0000,  0.0000,  0.0000)
  24 Ni     1.244508    6.222540   11.520000    ( 0.0000,  0.0000,  0.0000)
  25 Ni     3.733524    6.222540   11.520000    ( 0.0000,  0.0000,  0.0000)
  26 Ni     6.222540    6.222540   11.520000    ( 0.0000,  0.0000,  0.0000)
  27 Ni     0.000000    0.000000   13.280000    ( 0.0000,  0.0000,  0.0000)
  28 Ni     2.489016    0.000000   13.280000    ( 0.0000,  0.0000,  0.0000)
  29 Ni     4.978032    0.000000   13.280000    ( 0.0000,  0.0000,  0.0000)
  30 Ni     0.000000    2.489016   13.280000    ( 0.0000,  0.0000,  0.0000)
  31 Ni     2.489016    2.489016   13.280000    ( 0.0000,  0.0000,  0.0000)
  32 Ni     4.978032    2.489016   13.280000    ( 0.0000,  0.0000,  0.0000)
  33 Ni     0.000000    4.978032   13.280000    ( 0.0000,  0.0000,  0.0000)
  34 Ni     2.489016    4.978032   13.280000    ( 0.0000,  0.0000,  0.0000)
  35 Ni     4.978032    4.978032   13.280000    ( 0.0000,  0.0000,  0.0000)
  36 Mo     0.000000    0.000000   15.480000    ( 0.0000,  0.0000,  0.0000)
  37 Mo     2.060000    2.060000   17.540000    ( 0.0000,  0.0000,  0.0000)
  38 C      2.060000    2.060000   15.480000    ( 0.0000,  0.0000,  0.0000)
  39 Mo     0.000000    4.120000   15.480000    ( 0.0000,  0.0000,  0.0000)
  40 Mo     2.060000    6.180000   17.540000    ( 0.0000,  0.0000,  0.0000)
  41 C      2.060000    6.180000   15.480000    ( 0.0000,  0.0000,  0.0000)
  42 Mo     4.120000    0.000000   15.480000    ( 0.0000,  0.0000,  0.0000)
  43 Mo     6.180000    2.060000   17.540000    ( 0.0000,  0.0000,  0.0000)
  44 C      6.180000    2.060000   15.480000    ( 0.0000,  0.0000,  0.0000)
  45 Mo     4.120000    4.120000   15.480000    ( 0.0000,  0.0000,  0.0000)
  46 Mo     6.180000    6.180000   17.540000    ( 0.0000,  0.0000,  0.0000)
  47 C      6.180000    6.180000   15.480000    ( 0.0000,  0.0000,  0.0000)
  48 Ru     1.991786    3.191786   19.340000    ( 0.0000,  0.0000,  0.0000)
  49 Ru     4.391786    3.191786   19.340000    ( 0.0000,  0.0000,  0.0000)

Unit cell:
           periodic     x           y           z      points  spacing
  1. axis:    yes    7.467048    0.000000    0.000000    36     0.2074
  2. axis:    yes    0.000000    7.467048    0.000000    36     0.2074
  3. axis:    yes    0.000000    0.000000   25.540000   128     0.1995

  Lengths:   7.467048   7.467048  25.540000
  Angles:   90.000000  90.000000  90.000000

Effective grid spacing dv^(1/3) = 0.2048

     iter     time        total  log10-change:
                         energy   eigst   dens
iter:   1 21:05:42 -1125.022268        c
iter:   2 21:07:21 -3681.875123        c -0.93
iter:   3 21:09:00  -745.616548        c -0.46
iter:   4 21:10:39  -507.528026        c -1.07
iter:   5 21:12:23  -441.404460        c -1.33
iter:   6 21:14:12  -417.438503        c -1.41
iter:   7 21:16:58  -404.289716        c -1.48
iter:   8 21:19:14  -447.919768        c -1.50
iter:   9 21:21:04  -410.015147        c -1.48
iter:  10 21:22:45  -411.666455        c -1.53
iter:  11 21:24:44  -392.356976        c -1.57
iter:  12 21:26:33  -393.294027        c -1.79
iter:  13 21:28:23  -408.215062        c -1.84
iter:  14 21:30:08  -395.961536        c -1.59
iter:  15 21:31:59  -399.263902        c -1.80
iter:  16 21:33:41  -411.541982        c -1.76
iter:  17 21:35:23  -423.012648        c -1.71
iter:  18 21:37:09  -403.361141        c -1.58
iter:  19 21:38:55  -442.001019        c -1.80
iter:  20 21:40:39  -406.605511        c -1.39
iter:  21 21:42:23  -402.283495        c -1.71
iter:  22 21:44:04  -392.642312        c -1.81
iter:  23 21:45:47  -394.805209        c -2.04
iter:  24 21:47:26  -392.380608        c -1.93
iter:  25 21:49:09  -404.905127        c -2.01
iter:  26 21:50:53  -393.173140        c -1.66
iter:  27 21:52:33  -391.168835        c -2.06
iter:  28 21:54:15  -392.494503        c -2.19
iter:  29 21:56:01  -390.588818        c -2.00
iter:  30 21:57:54  -395.699035        c -2.28
iter:  31 21:59:41  -391.291551        c -2.07
iter:  32 22:01:32  -391.118437        c -2.33
iter:  33 22:03:15  -390.306286        c -2.34
iter:  34 22:04:56  -390.299506        c -2.45
iter:  35 22:06:37  -390.375442        c -2.39
iter:  36 22:08:23  -389.977910        c -2.47
iter:  37 22:10:09  -389.947084        c -2.74
iter:  38 22:11:56  -389.935975        c -2.74
iter:  39 22:13:47  -389.883460        c -2.87
iter:  40 22:15:37  -389.913222        c -2.98
iter:  41 22:17:39  -389.949279        c -2.77
iter:  42 22:19:29  -389.916465        c -2.81
iter:  43 22:21:16  -389.878542        c -2.98
iter:  44 22:23:00  -389.873340        c -2.89
iter:  45 22:25:02  -389.877803c       c -2.88
iter:  46 22:26:37  -389.870110        c -2.87
iter:  47 22:28:13  -389.886471        c -3.12
iter:  48 22:29:46  -389.878410        c -2.84
iter:  49 22:31:21  -389.862583        c -3.18
iter:  50 22:32:54  -389.908519        c -2.96
iter:  51 22:34:27  -389.859631        c -2.90
iter:  52 22:36:02  -389.877777        c -3.04
iter:  53 22:37:35  -389.882800        c -2.90
iter:  54 22:39:16  -389.876083c       c -3.16
iter:  55 22:40:52  -389.870871        c -3.21
iter:  56 22:42:28  -389.861699        c -3.20
iter:  57 22:44:01  -389.855506        c -3.24
iter:  58 22:45:35  -389.857058c       c -3.12
iter:  59 22:47:08  -389.856917c       c -3.31
iter:  60 22:48:44  -389.859111c       c -3.24
iter:  61 22:50:17  -389.859688c       c -3.17
iter:  62 22:51:50  -389.858954c       c -3.17
iter:  63 22:53:23  -389.894104        c -3.26
iter:  64 22:54:56  -389.856657        c -2.99
iter:  65 22:56:31  -389.925598        c -3.28
iter:  66 22:58:05  -389.868381        c -2.94
iter:  67 22:59:39  -389.865702        c -2.99
iter:  68 23:01:13  -389.854017        c -3.12
iter:  69 23:02:47  -389.870537        c -3.14
iter:  70 23:04:20  -389.860395        c -3.42
iter:  71 23:05:53  -389.855561        c -3.12
iter:  72 23:07:27  -389.863082        c -3.37
iter:  73 23:09:00  -389.858406        c -3.56
iter:  74 23:10:33  -389.856538c       c -3.38
iter:  75 23:12:17  -389.864471        c -3.54
iter:  76 23:13:53  -389.857836        c -3.57
iter:  77 23:15:26  -389.877017        c -3.62
iter:  78 23:16:59  -389.860144        c -3.32
iter:  79 23:18:32  -389.865422        c -3.75
iter:  80 23:20:09  -389.860451c       c -3.64
iter:  81 23:21:50  -389.865460c       c -3.58
iter:  82 23:23:24  -389.864627c       c -3.64
iter:  83 23:24:58  -389.860208c       c -3.72
iter:  84 23:26:32  -389.864243c       c -3.71
iter:  85 23:28:08  -389.861262c       c -3.76
iter:  86 23:29:44  -389.865788c       c -3.89
iter:  87 23:31:20  -389.860109c       c -3.70
iter:  88 23:32:58  -389.862723c       c -3.82
iter:  89 23:34:42  -389.862607c       c -3.87
iter:  90 23:36:18  -389.862218c       c -3.86
iter:  91 23:37:51  -389.864160c       c -3.95
iter:  92 23:39:27  -389.859377c       c -3.84
iter:  93 23:41:05  -389.865482c       c -3.85
iter:  94 23:42:38  -389.861053c       c -3.77
iter:  95 23:44:11  -389.862996c       c -4.03c

Converged after 95 iterations.

Dipole moment: (-7.995672, -7.456513, 0.640300) |e|*Ang

Energy contributions relative to reference atoms: (reference = -2617301.995678)

Kinetic:         +9.705553
Potential:       -5.628808
External:        +0.000000
XC:            -390.839649
Entropy (-ST):   -3.919321
Local:           -1.140432
SIC:             +0.000000
--------------------------
Free energy:   -391.822656
Extrapolated:  -389.862996

Showing only first 2 kpts
 Kpt  Band  Eigenvalues  Occupancy
  0   366      0.94239    1.19681
  0   367      0.96192    1.10142
  0   368      0.97544    1.03417
  0   369      0.98974    0.96273

  1   366      0.91945    1.30420
  1   367      0.93816    1.21709
  1   368      0.95047    1.15772
  1   369      0.95609    1.13021


Fermi level: 0.98228

No gap
No difference between direct/indirect transitions
Timing:                              incl.     excl.
-----------------------------------------------------------
Basic WFS set positions:             0.000     0.000   0.0% |
Basis functions set positions:       0.190     0.190   0.0% |
LCAO WFS Initialize:                 0.430     0.099   0.0% |
 Hamiltonian:                        0.332     0.000   0.0% |
  Atomic:                            0.163     0.002   0.0% |
   XC Correction:                    0.162     0.162   0.0% |
  Calculate atomic Hamiltonians:     0.026     0.026   0.0% |
  Communicate:                       0.000     0.000   0.0% |
  Hartree integrate/restrict:        0.011     0.011   0.0% |
  Initialize Hamiltonian:            0.000     0.000   0.0% |
  Poisson:                           0.079     0.007   0.0% |
   Communicate from 1D:              0.008     0.008   0.0% |
   Communicate from 2D:              0.006     0.006   0.0% |
   Communicate to 1D:                0.011     0.011   0.0% |
   Communicate to 2D:                0.011     0.011   0.0% |
   FFT 1D:                           0.008     0.008   0.0% |
   FFT 2D:                           0.029     0.029   0.0% |
  XC 3D grid:                        0.047     0.047   0.0% |
  vbar:                              0.005     0.005   0.0% |
P tci:                               5.828     5.828   0.1% |
SCF-cycle:                        9533.871     0.275   0.0% |
 Density:                         7187.493     0.001   0.0% |
  Atomic density matrices:           1.838     1.838   0.0% |
  Mix:                              10.683    10.683   0.1% |
  Multipole moments:                 0.027     0.027   0.0% |
  Normalize:                         0.012     0.012   0.0% |
  Pseudo density:                 7174.932     0.044   0.0% |
   Calculate density matrix:        16.896    16.896   0.2% |
   Construct density:             7157.991  7157.991  75.0% |-----------------------------|
   Symmetrize density:               0.002     0.002   0.0% |
 Hamiltonian:                       32.400     0.004   0.0% |
  Atomic:                           15.383     0.172   0.0% |
   XC Correction:                   15.211    15.211   0.2% |
  Calculate atomic Hamiltonians:     2.515     2.515   0.0% |
  Communicate:                       0.000     0.000   0.0% |
  Hartree integrate/restrict:        0.637     0.637   0.0% |
  Poisson:                           6.941     0.557   0.0% |
   Communicate from 1D:              0.784     0.784   0.0% |
   Communicate from 2D:              0.584     0.584   0.0% |
   Communicate to 1D:                0.672     0.672   0.0% |
   Communicate to 2D:                0.923     0.923   0.0% |
   FFT 1D:                           0.784     0.784   0.0% |
   FFT 2D:                           2.636     2.636   0.0% |
  XC 3D grid:                        5.956     5.956   0.1% |
  vbar:                              0.963     0.963   0.0% |
 LCAO eigensolver:                2313.704     3.056   0.0% |
  Calculate projections:            97.015    97.015   1.0% |
  DenseAtomicCorrection:           323.914   323.914   3.4% ||
  Distribute overlap matrix:         5.853     5.853   0.1% |
  Orbital Layouts:                 645.745   645.745   6.8% |--|
  Potential matrix:               1110.842  1110.842  11.6% |----|
  Sum over cells:                  127.279   127.279   1.3% ||
ST tci:                              2.203     2.203   0.0% |
Set symmetry:                        0.000     0.000   0.0% |
TCI: Evaluate splines:               0.648     0.648   0.0% |
mktci:                               0.028     0.028   0.0% |
Other:                               4.935     4.935   0.1% |
-----------------------------------------------------------
Total:                                      9548.134 100.0%

Memory usage: 4.49 GiB
Date: Sun Feb 22 23:44:11 2026
