
  ___ ___ ___ _ _ _  
 |   |   |_  | | | | 
 | | | | | . | | | | 
 |__ |  _|___|_____|  25.7.0
 |___|_|             

User:   mikei@Z790-AORUS-ELITE-AX
Date:   Sun Feb 22 23:44:11 2026
Arch:   x86_64
Pid:    89048
CWD:    /home/mikei/Dokumenty/code/cemea/ocx
Python: 3.10.16
gpaw:   /home/mikei/.pyenv/versions/cemea-env/lib/python3.10/site-packages/gpaw
_gpaw:  /home/mikei/.pyenv/versions/cemea-env/lib/python3.10/site-packages/
        _gpaw.cpython-310-x86_64-linux-gnu.so
ase:    /home/mikei/.pyenv/versions/cemea-env/lib/python3.10/site-packages/ase (version 3.27.0)
numpy:  /home/mikei/.pyenv/versions/cemea-env/lib/python3.10/site-packages/numpy (version 2.2.6)
scipy:  /home/mikei/.pyenv/versions/cemea-env/lib/python3.10/site-packages/scipy (version 1.15.3)
libxc:  2.x.y
units:  Angstrom and eV
cores: 1
OpenMP: False
OMP_NUM_THREADS: 1

Input parameters:
  basis: dzp
  convergence: {density: 0.0001,
                eigenstates: 1e-05,
                energy: 1e-05}
  kpts: [4 4 1]
  mode: lcao

System changes: positions, numbers, cell, pbc, initial_charges, initial_magmoms 

Initialize ...

species:
  Ni:
    name: Nickel
    id: 1802175e8de9ea26d9f4394ec1a7d564
    Z: 28.0
    valence: 16
    core: 12
    charge: 0.0
    file: /home/mikei/.pyenv/versions/cemea-env/lib/python3.10/site-packages/gpaw_data/setups/Ni.LDA.gz
    compensation charges: {type: gauss,
                           rc: 0.36,
                           lmax: 2}
    cutoffs: {filter: 2.14,
              core: 1.98}
    projectors:
      #              energy  rcut
      - 4s(2.00)    -5.858   1.164
      - 3p(6.00)   -71.266   1.207
      - 4p(0.00)    -1.338   1.207
      - 3d(8.00)    -9.141   1.138
      -  s          21.353   1.164
      -  d          18.071   1.138
  
    # LCAO basis set for Ni:
    #   Name: dzp
    #   File: /home/mikei/.pyenv/versions/cemea-env/lib/python3.10/site-packages/gpaw_data/setups/Ni.dzp.basis.gz
    #   Number of radial functions: 9
    #   Number of spherical harmonics: 27
    #     l=0, rc=8.5156 Bohr: 4s-sz confined orbital
    #     l=1, rc=2.9375 Bohr: 3p-sz confined orbital
    #     l=1, rc=12.4062 Bohr: 4p-sz confined orbital
    #     l=2, rc=4.6875 Bohr: 3d-sz confined orbital
    #     l=0, rc=4.9688 Bohr: 4s-dz split-valence wave
    #     l=1, rc=2.0781 Bohr: 3p-dz split-valence wave
    #     l=1, rc=7.5469 Bohr: 4p-dz split-valence wave
    #     l=2, rc=2.9375 Bohr: 3d-dz split-valence wave
    #     l=1, rc=8.5156 Bohr: p-type Gaussian polarization
    #   Number of RI-basis functions 0

  Mo:
    name: Molybdenum
    id: ac24daaf086600a00ce6d19a74574df1
    Z: 42.0
    valence: 14
    core: 28
    charge: 0.0
    file: /home/mikei/.pyenv/versions/cemea-env/lib/python3.10/site-packages/gpaw_data/setups/Mo.LDA.gz
    compensation charges: {type: gauss,
                           rc: 0.38,
                           lmax: 2}
    cutoffs: {filter: 2.16,
              core: 1.42}
    projectors:
      #              energy  rcut
      - 4s(2.00)   -64.384   1.238
      - 5s(1.00)    -4.319   1.238
      - 4p(6.00)   -38.595   1.296
      - 5p(0.00)    -1.161   1.296
      - 4d(5.00)    -3.933   1.296
      -  d          23.278   1.296
  
    # LCAO basis set for Mo:
    #   Name: dzp
    #   File: /home/mikei/.pyenv/versions/cemea-env/lib/python3.10/site-packages/gpaw_data/setups/Mo.dzp.basis.gz
    #   Number of radial functions: 11
    #   Number of spherical harmonics: 29
    #     l=0, rc=3.5469 Bohr: 4s-sz confined orbital
    #     l=0, rc=10.0469 Bohr: 5s-sz confined orbital
    #     l=1, rc=4.0781 Bohr: 4p-sz confined orbital
    #     l=1, rc=14.0938 Bohr: 5p-sz confined orbital
    #     l=2, rc=7.2031 Bohr: 4d-sz confined orbital
    #     l=0, rc=2.1250 Bohr: 4s-dz split-valence wave
    #     l=0, rc=6.1250 Bohr: 5s-dz split-valence wave
    #     l=1, rc=2.5469 Bohr: 4p-dz split-valence wave
    #     l=1, rc=8.7656 Bohr: 5p-dz split-valence wave
    #     l=2, rc=4.2344 Bohr: 4d-dz split-valence wave
    #     l=1, rc=10.0469 Bohr: p-type Gaussian polarization
    #   Number of RI-basis functions 0

  C:
    name: Carbon
    id: d60576a1f549371a163e72552ca58787
    Z: 6.0
    valence: 4
    core: 2
    charge: 0.0
    file: /home/mikei/.pyenv/versions/cemea-env/lib/python3.10/site-packages/gpaw_data/setups/C.LDA.gz
    compensation charges: {type: gauss,
                           rc: 0.20,
                           lmax: 2}
    cutoffs: {filter: 1.14,
              core: 1.14}
    projectors:
      #              energy  rcut
      - 2s(2.00)   -13.639   0.635
      - 2p(2.00)    -5.414   0.635
      -  s          13.573   0.635
      -  p          21.797   0.635
      -  d           0.000   0.635
  
    # LCAO basis set for C:
    #   Name: dzp
    #   File: /home/mikei/.pyenv/versions/cemea-env/lib/python3.10/site-packages/gpaw_data/setups/C.dzp.basis.gz
    #   Number of radial functions: 5
    #   Number of spherical harmonics: 13
    #     l=0, rc=5.5469 Bohr: 2s-sz confined orbital
    #     l=1, rc=6.6719 Bohr: 2p-sz confined orbital
    #     l=0, rc=3.0312 Bohr: 2s-dz split-valence wave
    #     l=1, rc=3.7500 Bohr: 2p-dz split-valence wave
    #     l=2, rc=6.6719 Bohr: d-type Gaussian polarization
    #   Number of RI-basis functions 0

  Ru:
    name: Ruthenium
    id: ee1c9ca112952e47c1459e90f4850566
    Z: 44.0
    valence: 16
    core: 28
    charge: 0.0
    file: /home/mikei/.pyenv/versions/cemea-env/lib/python3.10/site-packages/gpaw_data/setups/Ru.LDA.gz
    compensation charges: {type: gauss,
                           rc: 0.39,
                           lmax: 2}
    cutoffs: {filter: 2.16,
              core: 1.30}
    projectors:
      #              energy  rcut
      - 4s(2.00)   -76.385   1.281
      - 5s(1.00)    -4.507   1.281
      - 4p(6.00)   -46.536   1.286
      - 5p(0.00)    -1.033   1.286
      - 4d(7.00)    -5.402   1.254
      -  d          21.810   1.254
  
    # LCAO basis set for Ru:
    #   Name: dzp
    #   File: /home/mikei/.pyenv/versions/cemea-env/lib/python3.10/site-packages/gpaw_data/setups/Ru.dzp.basis.gz
    #   Number of radial functions: 11
    #   Number of spherical harmonics: 29
    #     l=0, rc=3.2969 Bohr: 4s-sz confined orbital
    #     l=0, rc=9.6875 Bohr: 5s-sz confined orbital
    #     l=1, rc=3.7656 Bohr: 4p-sz confined orbital
    #     l=1, rc=14.0938 Bohr: 5p-sz confined orbital
    #     l=2, rc=6.3281 Bohr: 4d-sz confined orbital
    #     l=0, rc=2.0781 Bohr: 4s-dz split-valence wave
    #     l=0, rc=5.8281 Bohr: 5s-dz split-valence wave
    #     l=1, rc=2.4219 Bohr: 4p-dz split-valence wave
    #     l=1, rc=8.7031 Bohr: 5p-dz split-valence wave
    #     l=2, rc=3.7500 Bohr: 4d-dz split-valence wave
    #     l=1, rc=9.6875 Bohr: p-type Gaussian polarization
    #   Number of RI-basis functions 0

  H:
    name: Hydrogen
    id: 4766778ce56282eaa64abeb28b7c1de3
    Z: 1.0
    valence: 1
    core: 0
    charge: 0.0
    file: /home/mikei/.pyenv/versions/cemea-env/lib/python3.10/site-packages/gpaw_data/setups/H.LDA.gz
    compensation charges: {type: gauss,
                           rc: 0.15,
                           lmax: 2}
    cutoffs: {filter: 0.85,
              core: 0.53}
    projectors:
      #              energy  rcut
      - 1s(1.00)    -6.353   0.476
      -  s          20.858   0.476
      -  p           0.000   0.476
  
    # LCAO basis set for H:
    #   Name: dzp
    #   File: /home/mikei/.pyenv/versions/cemea-env/lib/python3.10/site-packages/gpaw_data/setups/H.dzp.basis.gz
    #   Number of radial functions: 3
    #   Number of spherical harmonics: 5
    #     l=0, rc=6.4219 Bohr: 1s-sz confined orbital
    #     l=0, rc=3.6094 Bohr: 1s-dz split-valence wave
    #     l=1, rc=6.4219 Bohr: p-type Gaussian polarization
    #   Number of RI-basis functions 0

Reference energy: -2617314.124636  # eV

Spin-paired calculation

Convergence criteria:
 Maximum [total energy] change in last 3 cyles: 1e-05 eV / valence electron
 Maximum integral of absolute [dens]ity change: 0.0001 electrons / valence electron
 Maximum integral of absolute [eigenst]ate change: 1e-05 eV^2 / valence electron
 Maximum number of scf [iter]ations: 333
 (Square brackets indicate name in SCF output, whereas a 'c' in
 the SCF output indicates the quantity has converged.)

Symmetries present (total): 1

  ( 1  0  0)
  ( 0  1  0)
  ( 0  0  1)

16 k-points: 4 x 4 x 1 Monkhorst-Pack grid
8 k-points in the irreducible part of the Brillouin zone
       k-points in crystal coordinates                weights
   0:     0.12500000   -0.37500000    0.00000000          2/16
   1:     0.12500000   -0.12500000    0.00000000          2/16
   2:     0.12500000    0.12500000    0.00000000          2/16
   3:     0.12500000    0.37500000    0.00000000          2/16
   4:     0.37500000   -0.37500000    0.00000000          2/16
   5:     0.37500000   -0.12500000    0.00000000          2/16
   6:     0.37500000    0.12500000    0.00000000          2/16
   7:     0.37500000    0.37500000    0.00000000          2/16

Wave functions: LCAO
  Diagonalizer: Serial LAPACK
  Atomic Correction: dense with blas
  Data-type: complex
 

Occupation numbers: Fermi-Dirac:
  width: 0.1000  # eV
 

Eigensolver
   LCAO using direct dense diagonalizer 

Densities:
  Coarse grid: 36*36*128 grid
  Fine grid: 72*72*256 grid
  Total Charge: 0.000000 

Density mixing:
  Method: separate
  Backend: pulay
  Linear mixing parameter: 0.05
  old densities: 5
  Damping of long wavelength oscillations: 50 

Hamiltonian:
  XC and Coulomb potentials evaluated on a 72*72*256 grid
  Using the LDA Exchange-Correlation functional
  Interpolation: tri-quintic (5. degree polynomial)
  Poisson solver: FastPoissonSolver using
    Stencil: 6*3+1=19 point O(h^6) finite-difference Laplacian
    FFT axes: [np.int64(0), np.int64(1), np.int64(2)]
    FST axes: []
 

Memory estimate:
  Process memory now: 4595.48 MiB
  Calculator: 1078.20 MiB
    Density: 231.24 MiB
      Arrays: 32.91 MiB
      Localized functions: 185.68 MiB
      Mixer: 12.66 MiB
    Hamiltonian: 35.21 MiB
      Arrays: 21.52 MiB
      XC: 0.00 MiB
      Poisson: 0.00 MiB
      vbar: 13.70 MiB
    Wavefunctions: 811.74 MiB
      C [qnM]: 71.97 MiB
      S, T [2 x qmm]: 424.75 MiB
      P [aqMi]: 8.91 MiB
      BasisFunctions: 306.12 MiB
      Eigensolver: 0.00 MiB

Total number of cores used: 1

Number of atoms: 51
Number of atomic orbitals: 1319
Number of bands in calculation: 447
Number of valence electrons: 737
Bands to converge: occupied

... initialized

Initializing position-dependent things.

Density initialized from atomic densities
      .-----------------.  
     /|                 |  
    / |                 |  
   /  |                 |  
  /   |                 |  
 *    |                 |  
 |    |                 |  
 |    |                 |  
 |    |                 |  
 |    |    H            |  
 |    | Ru    Ru        |  
 |    |   Mo        Mo  |  
 |    |                 |  
 |    |Mo C      Mo C   |  
 |  Mo|       Mo        |  
 |    |                 |  
 |    |C         C      |  
 Mo Ni|   NMo   Ni      |  
 | Ni | NNi   NNi   Ni  |  
 |    |                 |  
 Ni   NNi   NNi   Ni    |  
 |  NNi   NNi   NNi     |  
 | Ni | NNi   NNi   Ni  |  
 |    |                 |  
 Ni   NNi   NNi   Ni    |  
 |   Ni    Ni    Ni     |  
 |    |                 |  
 |    |                 |  
 |    |                 |  
 |    |                 |  
 |    |                 |  
 |    .-----------------.  
 |   /                 /   
 |  /                 /    
 | /                 /     
 |/                 /      
 *-----------------*       

Atomic positions and initial magnetic moments

Positions:
   0 Ni     1.244508    1.244508    8.000000    ( 0.0000,  0.0000,  0.0000)
   1 Ni     3.733524    1.244508    8.000000    ( 0.0000,  0.0000,  0.0000)
   2 Ni     6.222540    1.244508    8.000000    ( 0.0000,  0.0000,  0.0000)
   3 Ni     1.244508    3.733524    8.000000    ( 0.0000,  0.0000,  0.0000)
   4 Ni     3.733524    3.733524    8.000000    ( 0.0000,  0.0000,  0.0000)
   5 Ni     6.222540    3.733524    8.000000    ( 0.0000,  0.0000,  0.0000)
   6 Ni     1.244508    6.222540    8.000000    ( 0.0000,  0.0000,  0.0000)
   7 Ni     3.733524    6.222540    8.000000    ( 0.0000,  0.0000,  0.0000)
   8 Ni     6.222540    6.222540    8.000000    ( 0.0000,  0.0000,  0.0000)
   9 Ni     0.000000    0.000000    9.760000    ( 0.0000,  0.0000,  0.0000)
  10 Ni     2.489016    0.000000    9.760000    ( 0.0000,  0.0000,  0.0000)
  11 Ni     4.978032    0.000000    9.760000    ( 0.0000,  0.0000,  0.0000)
  12 Ni     0.000000    2.489016    9.760000    ( 0.0000,  0.0000,  0.0000)
  13 Ni     2.489016    2.489016    9.760000    ( 0.0000,  0.0000,  0.0000)
  14 Ni     4.978032    2.489016    9.760000    ( 0.0000,  0.0000,  0.0000)
  15 Ni     0.000000    4.978032    9.760000    ( 0.0000,  0.0000,  0.0000)
  16 Ni     2.489016    4.978032    9.760000    ( 0.0000,  0.0000,  0.0000)
  17 Ni     4.978032    4.978032    9.760000    ( 0.0000,  0.0000,  0.0000)
  18 Ni     1.244508    1.244508   11.520000    ( 0.0000,  0.0000,  0.0000)
  19 Ni     3.733524    1.244508   11.520000    ( 0.0000,  0.0000,  0.0000)
  20 Ni     6.222540    1.244508   11.520000    ( 0.0000,  0.0000,  0.0000)
  21 Ni     1.244508    3.733524   11.520000    ( 0.0000,  0.0000,  0.0000)
  22 Ni     3.733524    3.733524   11.520000    ( 0.0000,  0.0000,  0.0000)
  23 Ni     6.222540    3.733524   11.520000    ( 0.0000,  0.0000,  0.0000)
  24 Ni     1.244508    6.222540   11.520000    ( 0.0000,  0.0000,  0.0000)
  25 Ni     3.733524    6.222540   11.520000    ( 0.0000,  0.0000,  0.0000)
  26 Ni     6.222540    6.222540   11.520000    ( 0.0000,  0.0000,  0.0000)
  27 Ni     0.000000    0.000000   13.280000    ( 0.0000,  0.0000,  0.0000)
  28 Ni     2.489016    0.000000   13.280000    ( 0.0000,  0.0000,  0.0000)
  29 Ni     4.978032    0.000000   13.280000    ( 0.0000,  0.0000,  0.0000)
  30 Ni     0.000000    2.489016   13.280000    ( 0.0000,  0.0000,  0.0000)
  31 Ni     2.489016    2.489016   13.280000    ( 0.0000,  0.0000,  0.0000)
  32 Ni     4.978032    2.489016   13.280000    ( 0.0000,  0.0000,  0.0000)
  33 Ni     0.000000    4.978032   13.280000    ( 0.0000,  0.0000,  0.0000)
  34 Ni     2.489016    4.978032   13.280000    ( 0.0000,  0.0000,  0.0000)
  35 Ni     4.978032    4.978032   13.280000    ( 0.0000,  0.0000,  0.0000)
  36 Mo     0.000000    0.000000   15.480000    ( 0.0000,  0.0000,  0.0000)
  37 Mo     2.060000    2.060000   17.540000    ( 0.0000,  0.0000,  0.0000)
  38 C      2.060000    2.060000   15.480000    ( 0.0000,  0.0000,  0.0000)
  39 Mo     0.000000    4.120000   15.480000    ( 0.0000,  0.0000,  0.0000)
  40 Mo     2.060000    6.180000   17.540000    ( 0.0000,  0.0000,  0.0000)
  41 C      2.060000    6.180000   15.480000    ( 0.0000,  0.0000,  0.0000)
  42 Mo     4.120000    0.000000   15.480000    ( 0.0000,  0.0000,  0.0000)
  43 Mo     6.180000    2.060000   17.540000    ( 0.0000,  0.0000,  0.0000)
  44 C      6.180000    2.060000   15.480000    ( 0.0000,  0.0000,  0.0000)
  45 Mo     4.120000    4.120000   15.480000    ( 0.0000,  0.0000,  0.0000)
  46 Mo     6.180000    6.180000   17.540000    ( 0.0000,  0.0000,  0.0000)
  47 C      6.180000    6.180000   15.480000    ( 0.0000,  0.0000,  0.0000)
  48 Ru     1.991786    3.191786   19.340000    ( 0.0000,  0.0000,  0.0000)
  49 Ru     4.391786    3.191786   19.340000    ( 0.0000,  0.0000,  0.0000)
  50 H      3.191786    3.191786   20.840000    ( 0.0000,  0.0000,  0.0000)

Unit cell:
           periodic     x           y           z      points  spacing
  1. axis:    yes    7.467048    0.000000    0.000000    36     0.2074
  2. axis:    yes    0.000000    7.467048    0.000000    36     0.2074
  3. axis:    yes    0.000000    0.000000   25.540000   128     0.1995

  Lengths:   7.467048   7.467048  25.540000
  Angles:   90.000000  90.000000  90.000000

Effective grid spacing dv^(1/3) = 0.2048

     iter     time        total  log10-change:
                         energy   eigst   dens
iter:   1 23:44:45 -1140.194199        c
iter:   2 23:46:19 -3762.019796        c -0.92
iter:   3 23:47:52  -754.458025        c -0.45
iter:   4 23:49:25  -515.345229        c -1.07
iter:   5 23:51:01  -445.160975        c -1.32
iter:   6 23:52:34  -419.455998        c -1.40
iter:   7 23:54:07  -413.401948        c -1.48
iter:   8 23:55:45  -476.579630        c -1.45
iter:   9 23:57:25  -414.709821        c -1.43
iter:  10 23:59:02  -414.079997        c -1.58
iter:  11 00:00:35  -412.519544        c -1.59
iter:  12 00:02:09  -399.959548        c -1.71
iter:  13 00:03:46  -408.350530        c -1.72
iter:  14 00:05:19  -395.596550        c -1.75
iter:  15 00:06:52  -398.007828        c -1.91
iter:  16 00:08:27  -415.325224        c -1.92
iter:  17 00:10:00  -397.133009        c -1.64
iter:  18 00:11:33  -395.112180        c -1.94
iter:  19 00:13:06  -403.200587        c -2.19
iter:  20 00:14:43  -400.676748        c -1.85
iter:  21 00:16:20  -399.055445        c -1.95
iter:  22 00:17:58  -394.926169        c -1.92
iter:  23 00:19:36  -394.650693        c -2.13
iter:  24 00:21:12  -396.961499        c -2.21
iter:  25 00:22:52  -394.337626        c -2.05
iter:  26 00:24:27  -394.199356        c -2.36
iter:  27 00:26:01  -395.242012        c -2.38
iter:  28 00:27:34  -394.208150        c -2.14
iter:  29 00:29:10  -395.252236        c -2.37
iter:  30 00:30:45  -393.849926        c -2.17
iter:  31 00:32:25  -394.805818        c -2.66
iter:  32 00:34:05  -394.592477        c -2.17
iter:  33 00:35:40  -394.357972        c -2.23
iter:  34 00:37:18  -394.139722        c -2.25
iter:  35 00:38:51  -394.631483        c -2.31
iter:  36 00:40:25  -394.272708        c -2.27
iter:  37 00:41:58  -393.843228        c -2.40
iter:  38 00:43:36  -393.835402        c -2.56
iter:  39 00:45:14  -393.914262        c -2.75
iter:  40 00:46:49  -393.778007        c -2.54
iter:  41 00:48:27  -393.758567        c -2.84
iter:  42 00:50:01  -393.738679        c -2.92
iter:  43 00:51:38  -393.734631        c -3.00
iter:  44 00:53:11  -393.794846        c -3.01
iter:  45 00:54:45  -393.748872        c -2.90
iter:  46 00:56:18  -393.729235        c -3.09
iter:  47 00:57:54  -393.792035        c -3.16
iter:  48 00:59:29  -393.731589        c -2.91
iter:  49 01:01:03  -393.728487        c -2.94
iter:  50 01:02:42  -393.726042c       c -3.03
iter:  51 01:04:15  -393.720164        c -3.12
iter:  52 01:05:50  -393.745228        c -3.16
iter:  53 01:07:24  -393.731109        c -2.96
iter:  54 01:09:00  -393.798655        c -2.95
iter:  55 01:10:36  -393.760250        c -2.88
iter:  56 01:12:09  -393.719352        c -3.14
iter:  57 01:13:42  -393.744895        c -3.35
iter:  58 01:15:15  -393.737558        c -3.09
iter:  59 01:16:53  -393.721932        c -3.46
iter:  60 01:18:30  -393.725160        c -3.44
iter:  61 01:20:03  -393.719961c       c -3.55
iter:  62 01:21:36  -393.723311c       c -3.43
iter:  63 01:23:09  -393.756114        c -3.57
iter:  64 01:24:42  -393.722382        c -3.16
iter:  65 01:26:16  -393.731505        c -3.76
iter:  66 01:27:51  -393.727828        c -3.69
iter:  67 01:29:24  -393.726582c       c -4.01c

Converged after 67 iterations.

Dipole moment: (-7.975070, -7.432611, 0.348982) |e|*Ang

Energy contributions relative to reference atoms: (reference = -2617314.124636)

Kinetic:        +13.962144
Potential:      -10.955452
External:        +0.000000
XC:            -393.562018
Entropy (-ST):   -3.916861
Local:           -1.212825
SIC:             +0.000000
--------------------------
Free energy:   -395.685013
Extrapolated:  -393.726582

Showing only first 2 kpts
 Kpt  Band  Eigenvalues  Occupancy
  0   366      0.85373    1.21206
  0   367      0.85893    1.18711
  0   368      0.87840    1.09171
  0   369      0.89201    1.02395

  1   366      0.83152    1.31528
  1   367      0.84508    1.25296
  1   368      0.85417    1.21000
  1   369      0.86581    1.15373


Fermi level: 0.89680

No gap
No difference between direct/indirect transitions
Timing:                              incl.     excl.
-----------------------------------------------------------
Basic WFS set positions:             0.000     0.000   0.0% |
Basis functions set positions:       0.184     0.184   0.0% |
LCAO WFS Initialize:                 0.417     0.097   0.0% |
 Hamiltonian:                        0.321     0.000   0.0% |
  Atomic:                            0.161     0.002   0.0% |
   XC Correction:                    0.159     0.159   0.0% |
  Calculate atomic Hamiltonians:     0.026     0.026   0.0% |
  Communicate:                       0.000     0.000   0.0% |
  Hartree integrate/restrict:        0.006     0.006   0.0% |
  Initialize Hamiltonian:            0.000     0.000   0.0% |
  Poisson:                           0.079     0.006   0.0% |
   Communicate from 1D:              0.008     0.008   0.0% |
   Communicate from 2D:              0.006     0.006   0.0% |
   Communicate to 1D:                0.011     0.011   0.0% |
   Communicate to 2D:                0.011     0.011   0.0% |
   FFT 1D:                           0.008     0.008   0.0% |
   FFT 2D:                           0.029     0.029   0.0% |
  XC 3D grid:                        0.046     0.046   0.0% |
  vbar:                              0.002     0.002   0.0% |
P tci:                               5.418     5.418   0.1% |
SCF-cycle:                        6299.775     0.198   0.0% |
 Density:                         4852.592     0.001   0.0% |
  Atomic density matrices:           1.272     1.272   0.0% |
  Mix:                               7.279     7.279   0.1% |
  Multipole moments:                 0.019     0.019   0.0% |
  Normalize:                         0.008     0.008   0.0% |
  Pseudo density:                 4844.014     0.031   0.0% |
   Calculate density matrix:        11.068    11.068   0.2% |
   Construct density:             4832.914  4832.914  76.6% |------------------------------|
   Symmetrize density:               0.001     0.001   0.0% |
 Hamiltonian:                       22.062     0.003   0.0% |
  Atomic:                           10.683     0.119   0.0% |
   XC Correction:                   10.565    10.565   0.2% |
  Calculate atomic Hamiltonians:     1.739     1.739   0.0% |
  Communicate:                       0.000     0.000   0.0% |
  Hartree integrate/restrict:        0.416     0.416   0.0% |
  Poisson:                           4.698     0.373   0.0% |
   Communicate from 1D:              0.537     0.537   0.0% |
   Communicate from 2D:              0.406     0.406   0.0% |
   Communicate to 1D:                0.472     0.472   0.0% |
   Communicate to 2D:                0.638     0.638   0.0% |
   FFT 1D:                           0.535     0.535   0.0% |
   FFT 2D:                           1.736     1.736   0.0% |
  XC 3D grid:                        3.975     3.975   0.1% |
  vbar:                              0.548     0.548   0.0% |
 LCAO eigensolver:                1424.924     2.097   0.0% |
  Calculate projections:            58.646    58.646   0.9% |
  DenseAtomicCorrection:           212.234   212.234   3.4% ||
  Distribute overlap matrix:         4.581     4.581   0.1% |
  Orbital Layouts:                 314.410   314.410   5.0% |-|
  Potential matrix:                745.326   745.326  11.8% |----|
  Sum over cells:                   87.631    87.631   1.4% ||
ST tci:                              2.091     2.091   0.0% |
Set symmetry:                        0.000     0.000   0.0% |
TCI: Evaluate splines:               0.718     0.718   0.0% |
mktci:                               0.026     0.026   0.0% |
Other:                               4.395     4.395   0.1% |
-----------------------------------------------------------
Total:                                      6313.026 100.0%

Memory usage: 4.49 GiB
Date: Mon Feb 23 01:29:24 2026
