
  ___ ___ ___ _ _ _  
 |   |   |_  | | | | 
 | | | | | . | | | | 
 |__ |  _|___|_____|  25.7.0
 |___|_|             

User:   mikei@Z790-AORUS-ELITE-AX
Date:   Mon Mar  2 07:49:20 2026
Arch:   x86_64
Pid:    89048
CWD:    /home/mikei/Dokumenty/code/cemea/ocx
Python: 3.10.16
gpaw:   /home/mikei/.pyenv/versions/cemea-env/lib/python3.10/site-packages/gpaw
_gpaw:  /home/mikei/.pyenv/versions/cemea-env/lib/python3.10/site-packages/
        _gpaw.cpython-310-x86_64-linux-gnu.so
ase:    /home/mikei/.pyenv/versions/cemea-env/lib/python3.10/site-packages/ase (version 3.27.0)
numpy:  /home/mikei/.pyenv/versions/cemea-env/lib/python3.10/site-packages/numpy (version 2.2.6)
scipy:  /home/mikei/.pyenv/versions/cemea-env/lib/python3.10/site-packages/scipy (version 1.15.3)
libxc:  2.x.y
units:  Angstrom and eV
cores: 1
OpenMP: False
OMP_NUM_THREADS: 1

Input parameters:
  basis: dzp
  convergence: {density: 0.0001,
                eigenstates: 1e-05,
                energy: 1e-05}
  kpts: [4 4 1]
  mode: lcao

System changes: positions, numbers, cell, pbc, initial_charges, initial_magmoms 

Initialize ...

species:
  Ni:
    name: Nickel
    id: 1802175e8de9ea26d9f4394ec1a7d564
    Z: 28.0
    valence: 16
    core: 12
    charge: 0.0
    file: /home/mikei/.pyenv/versions/cemea-env/lib/python3.10/site-packages/gpaw_data/setups/Ni.LDA.gz
    compensation charges: {type: gauss,
                           rc: 0.36,
                           lmax: 2}
    cutoffs: {filter: 2.14,
              core: 1.98}
    projectors:
      #              energy  rcut
      - 4s(2.00)    -5.858   1.164
      - 3p(6.00)   -71.266   1.207
      - 4p(0.00)    -1.338   1.207
      - 3d(8.00)    -9.141   1.138
      -  s          21.353   1.164
      -  d          18.071   1.138
  
    # LCAO basis set for Ni:
    #   Name: dzp
    #   File: /home/mikei/.pyenv/versions/cemea-env/lib/python3.10/site-packages/gpaw_data/setups/Ni.dzp.basis.gz
    #   Number of radial functions: 9
    #   Number of spherical harmonics: 27
    #     l=0, rc=8.5156 Bohr: 4s-sz confined orbital
    #     l=1, rc=2.9375 Bohr: 3p-sz confined orbital
    #     l=1, rc=12.4062 Bohr: 4p-sz confined orbital
    #     l=2, rc=4.6875 Bohr: 3d-sz confined orbital
    #     l=0, rc=4.9688 Bohr: 4s-dz split-valence wave
    #     l=1, rc=2.0781 Bohr: 3p-dz split-valence wave
    #     l=1, rc=7.5469 Bohr: 4p-dz split-valence wave
    #     l=2, rc=2.9375 Bohr: 3d-dz split-valence wave
    #     l=1, rc=8.5156 Bohr: p-type Gaussian polarization
    #   Number of RI-basis functions 0

  Mo:
    name: Molybdenum
    id: ac24daaf086600a00ce6d19a74574df1
    Z: 42.0
    valence: 14
    core: 28
    charge: 0.0
    file: /home/mikei/.pyenv/versions/cemea-env/lib/python3.10/site-packages/gpaw_data/setups/Mo.LDA.gz
    compensation charges: {type: gauss,
                           rc: 0.38,
                           lmax: 2}
    cutoffs: {filter: 2.16,
              core: 1.42}
    projectors:
      #              energy  rcut
      - 4s(2.00)   -64.384   1.238
      - 5s(1.00)    -4.319   1.238
      - 4p(6.00)   -38.595   1.296
      - 5p(0.00)    -1.161   1.296
      - 4d(5.00)    -3.933   1.296
      -  d          23.278   1.296
  
    # LCAO basis set for Mo:
    #   Name: dzp
    #   File: /home/mikei/.pyenv/versions/cemea-env/lib/python3.10/site-packages/gpaw_data/setups/Mo.dzp.basis.gz
    #   Number of radial functions: 11
    #   Number of spherical harmonics: 29
    #     l=0, rc=3.5469 Bohr: 4s-sz confined orbital
    #     l=0, rc=10.0469 Bohr: 5s-sz confined orbital
    #     l=1, rc=4.0781 Bohr: 4p-sz confined orbital
    #     l=1, rc=14.0938 Bohr: 5p-sz confined orbital
    #     l=2, rc=7.2031 Bohr: 4d-sz confined orbital
    #     l=0, rc=2.1250 Bohr: 4s-dz split-valence wave
    #     l=0, rc=6.1250 Bohr: 5s-dz split-valence wave
    #     l=1, rc=2.5469 Bohr: 4p-dz split-valence wave
    #     l=1, rc=8.7656 Bohr: 5p-dz split-valence wave
    #     l=2, rc=4.2344 Bohr: 4d-dz split-valence wave
    #     l=1, rc=10.0469 Bohr: p-type Gaussian polarization
    #   Number of RI-basis functions 0

  B:
    name: Boron
    id: 02e2e0e88ef95f403158802f6b0f4231
    Z: 5.0
    valence: 3
    core: 2
    charge: 0.0
    file: /home/mikei/.pyenv/versions/cemea-env/lib/python3.10/site-packages/gpaw_data/setups/B.LDA.gz
    compensation charges: {type: gauss,
                           rc: 0.20,
                           lmax: 2}
    cutoffs: {filter: 1.14,
              core: 1.42}
    projectors:
      #              energy  rcut
      - 2s(2.00)    -9.383   0.635
      - 2p(1.00)    -3.714   0.635
      -  s          17.828   0.635
      -  p          23.498   0.635
      -  d           0.000   0.635
  
    # LCAO basis set for B:
    #   Name: dzp
    #   File: /home/mikei/.pyenv/versions/cemea-env/lib/python3.10/site-packages/gpaw_data/setups/B.dzp.basis.gz
    #   Number of radial functions: 5
    #   Number of spherical harmonics: 13
    #     l=0, rc=6.6719 Bohr: 2s-sz confined orbital
    #     l=1, rc=8.2188 Bohr: 2p-sz confined orbital
    #     l=0, rc=3.7500 Bohr: 2s-dz split-valence wave
    #     l=1, rc=4.6094 Bohr: 2p-dz split-valence wave
    #     l=2, rc=8.2188 Bohr: d-type Gaussian polarization
    #   Number of RI-basis functions 0

  Pt:
    name: Platinum
    id: 5a6399afde4becbffda6f57f3efd9534
    Z: 78.0
    valence: 16
    core: 62
    charge: 0.0
    file: /home/mikei/.pyenv/versions/cemea-env/lib/python3.10/site-packages/gpaw_data/setups/Pt.LDA.gz
    compensation charges: {type: gauss,
                           rc: 0.41,
                           lmax: 2}
    cutoffs: {filter: 2.26,
              core: 2.26}
    projectors:
      #              energy  rcut
      - 6s(1.00)    -5.930   1.307
      - 5p(6.00)   -56.318   1.371
      - 6p(0.00)    -0.962   1.371
      - 5d(9.00)    -6.387   1.307
      -  s          21.281   1.307
      -  d          20.825   1.307
  
    # LCAO basis set for Pt:
    #   Name: dzp
    #   File: /home/mikei/.pyenv/versions/cemea-env/lib/python3.10/site-packages/gpaw_data/setups/Pt.dzp.basis.gz
    #   Number of radial functions: 9
    #   Number of spherical harmonics: 27
    #     l=0, rc=8.5938 Bohr: 6s-sz confined orbital
    #     l=1, rc=3.5781 Bohr: 5p-sz confined orbital
    #     l=1, rc=13.6250 Bohr: 6p-sz confined orbital
    #     l=2, rc=6.0938 Bohr: 5d-sz confined orbital
    #     l=0, rc=5.0625 Bohr: 6s-dz split-valence wave
    #     l=1, rc=2.4219 Bohr: 5p-dz split-valence wave
    #     l=1, rc=8.3281 Bohr: 6p-dz split-valence wave
    #     l=2, rc=3.6406 Bohr: 5d-dz split-valence wave
    #     l=1, rc=8.5938 Bohr: p-type Gaussian polarization
    #   Number of RI-basis functions 0

  H:
    name: Hydrogen
    id: 4766778ce56282eaa64abeb28b7c1de3
    Z: 1.0
    valence: 1
    core: 0
    charge: 0.0
    file: /home/mikei/.pyenv/versions/cemea-env/lib/python3.10/site-packages/gpaw_data/setups/H.LDA.gz
    compensation charges: {type: gauss,
                           rc: 0.15,
                           lmax: 2}
    cutoffs: {filter: 0.85,
              core: 0.53}
    projectors:
      #              energy  rcut
      - 1s(1.00)    -6.353   0.476
      -  s          20.858   0.476
      -  p           0.000   0.476
  
    # LCAO basis set for H:
    #   Name: dzp
    #   File: /home/mikei/.pyenv/versions/cemea-env/lib/python3.10/site-packages/gpaw_data/setups/H.dzp.basis.gz
    #   Number of radial functions: 3
    #   Number of spherical harmonics: 5
    #     l=0, rc=6.4219 Bohr: 1s-sz confined orbital
    #     l=0, rc=3.6094 Bohr: 1s-dz split-valence wave
    #     l=1, rc=6.4219 Bohr: p-type Gaussian polarization
    #   Number of RI-basis functions 0

Reference energy: -2929756.787298  # eV

Spin-paired calculation

Convergence criteria:
 Maximum [total energy] change in last 3 cyles: 1e-05 eV / valence electron
 Maximum integral of absolute [dens]ity change: 0.0001 electrons / valence electron
 Maximum integral of absolute [eigenst]ate change: 1e-05 eV^2 / valence electron
 Maximum number of scf [iter]ations: 333
 (Square brackets indicate name in SCF output, whereas a 'c' in
 the SCF output indicates the quantity has converged.)

Symmetries present (total): 1

  ( 1  0  0)
  ( 0  1  0)
  ( 0  0  1)

16 k-points: 4 x 4 x 1 Monkhorst-Pack grid
8 k-points in the irreducible part of the Brillouin zone
       k-points in crystal coordinates                weights
   0:     0.12500000   -0.37500000    0.00000000          2/16
   1:     0.12500000   -0.12500000    0.00000000          2/16
   2:     0.12500000    0.12500000    0.00000000          2/16
   3:     0.12500000    0.37500000    0.00000000          2/16
   4:     0.37500000   -0.37500000    0.00000000          2/16
   5:     0.37500000   -0.12500000    0.00000000          2/16
   6:     0.37500000    0.12500000    0.00000000          2/16
   7:     0.37500000    0.37500000    0.00000000          2/16

Wave functions: LCAO
  Diagonalizer: Serial LAPACK
  Atomic Correction: dense with blas
  Data-type: complex
 

Occupation numbers: Fermi-Dirac:
  width: 0.1000  # eV
 

Eigensolver
   LCAO using direct dense diagonalizer 

Densities:
  Coarse grid: 36*36*124 grid
  Fine grid: 72*72*248 grid
  Total Charge: 0.000000 

Density mixing:
  Method: separate
  Backend: pulay
  Linear mixing parameter: 0.05
  old densities: 5
  Damping of long wavelength oscillations: 50 

Hamiltonian:
  XC and Coulomb potentials evaluated on a 72*72*248 grid
  Using the LDA Exchange-Correlation functional
  Interpolation: tri-quintic (5. degree polynomial)
  Poisson solver: FastPoissonSolver using
    Stencil: 6*3+1=19 point O(h^6) finite-difference Laplacian
    FFT axes: [np.int64(0), np.int64(1), np.int64(2)]
    FST axes: []
 

Memory estimate:
  Process memory now: 4818.40 MiB
  Calculator: 930.86 MiB
    Density: 211.32 MiB
      Arrays: 31.88 MiB
      Localized functions: 167.18 MiB
      Mixer: 12.26 MiB
    Hamiltonian: 33.30 MiB
      Arrays: 20.84 MiB
      XC: 0.00 MiB
      Poisson: 0.00 MiB
      vbar: 12.46 MiB
    Wavefunctions: 686.24 MiB
      C [qnM]: 60.15 MiB
      S, T [2 x qmm]: 350.98 MiB
      P [aqMi]: 7.44 MiB
      BasisFunctions: 267.67 MiB
      Eigensolver: 0.00 MiB

Total number of cores used: 1

Number of atoms: 47
Number of atomic orbitals: 1199
Number of bands in calculation: 411
Number of valence electrons: 677
Bands to converge: occupied

... initialized

Initializing position-dependent things.

Density initialized from atomic densities
      .-----------------.  
     /|                 |  
    / |                 |  
   /  |                 |  
  /   |                 |  
 *    |                 |  
 |    |                 |  
 |    |                 |  
 |    |                 |  
 |    |   H             |  
 |    |                 |  
 |    |Pt    Pt         |  
 |    | B      B        |  
 |    |                 |  
 |    B      B          |  
 | Mo |   Mo            |  
 |  Ni|   Ni    Ni      |  
 Mo   | Mo              |  
 | Ni | NNi   NNi   Ni  |  
 |    Ni    Ni    Ni    |  
 Ni   |Ni    Ni         |  
 |  NNi   NNi   NNi     |  
 | Ni | NNi   NNi   Ni  |  
 |    |                 |  
 Ni   NNi   NNi   Ni    |  
 |   Ni    Ni    Ni     |  
 |    |                 |  
 |    |                 |  
 |    |                 |  
 |    |                 |  
 |    |                 |  
 |    .-----------------.  
 |   /                 /   
 |  /                 /    
 | /                 /     
 |/                 /      
 *-----------------*       

Atomic positions and initial magnetic moments

Positions:
   0 Ni     1.244508    1.244508    8.000000    ( 0.0000,  0.0000,  0.0000)
   1 Ni     3.733524    1.244508    8.000000    ( 0.0000,  0.0000,  0.0000)
   2 Ni     6.222540    1.244508    8.000000    ( 0.0000,  0.0000,  0.0000)
   3 Ni     1.244508    3.733524    8.000000    ( 0.0000,  0.0000,  0.0000)
   4 Ni     3.733524    3.733524    8.000000    ( 0.0000,  0.0000,  0.0000)
   5 Ni     6.222540    3.733524    8.000000    ( 0.0000,  0.0000,  0.0000)
   6 Ni     1.244508    6.222540    8.000000    ( 0.0000,  0.0000,  0.0000)
   7 Ni     3.733524    6.222540    8.000000    ( 0.0000,  0.0000,  0.0000)
   8 Ni     6.222540    6.222540    8.000000    ( 0.0000,  0.0000,  0.0000)
   9 Ni     0.000000    0.000000    9.760000    ( 0.0000,  0.0000,  0.0000)
  10 Ni     2.489016    0.000000    9.760000    ( 0.0000,  0.0000,  0.0000)
  11 Ni     4.978032    0.000000    9.760000    ( 0.0000,  0.0000,  0.0000)
  12 Ni     0.000000    2.489016    9.760000    ( 0.0000,  0.0000,  0.0000)
  13 Ni     2.489016    2.489016    9.760000    ( 0.0000,  0.0000,  0.0000)
  14 Ni     4.978032    2.489016    9.760000    ( 0.0000,  0.0000,  0.0000)
  15 Ni     0.000000    4.978032    9.760000    ( 0.0000,  0.0000,  0.0000)
  16 Ni     2.489016    4.978032    9.760000    ( 0.0000,  0.0000,  0.0000)
  17 Ni     4.978032    4.978032    9.760000    ( 0.0000,  0.0000,  0.0000)
  18 Ni     1.244508    1.244508   11.520000    ( 0.0000,  0.0000,  0.0000)
  19 Ni     3.733524    1.244508   11.520000    ( 0.0000,  0.0000,  0.0000)
  20 Ni     6.222540    1.244508   11.520000    ( 0.0000,  0.0000,  0.0000)
  21 Ni     1.244508    3.733524   11.520000    ( 0.0000,  0.0000,  0.0000)
  22 Ni     3.733524    3.733524   11.520000    ( 0.0000,  0.0000,  0.0000)
  23 Ni     6.222540    3.733524   11.520000    ( 0.0000,  0.0000,  0.0000)
  24 Ni     1.244508    6.222540   11.520000    ( 0.0000,  0.0000,  0.0000)
  25 Ni     3.733524    6.222540   11.520000    ( 0.0000,  0.0000,  0.0000)
  26 Ni     6.222540    6.222540   11.520000    ( 0.0000,  0.0000,  0.0000)
  27 Ni     0.000000    0.000000   13.280000    ( 0.0000,  0.0000,  0.0000)
  28 Ni     2.489016    0.000000   13.280000    ( 0.0000,  0.0000,  0.0000)
  29 Ni     4.978032    0.000000   13.280000    ( 0.0000,  0.0000,  0.0000)
  30 Ni     0.000000    2.489016   13.280000    ( 0.0000,  0.0000,  0.0000)
  31 Ni     2.489016    2.489016   13.280000    ( 0.0000,  0.0000,  0.0000)
  32 Ni     4.978032    2.489016   13.280000    ( 0.0000,  0.0000,  0.0000)
  33 Ni     0.000000    4.978032   13.280000    ( 0.0000,  0.0000,  0.0000)
  34 Ni     2.489016    4.978032   13.280000    ( 0.0000,  0.0000,  0.0000)
  35 Ni     4.978032    4.978032   13.280000    ( 0.0000,  0.0000,  0.0000)
  36 Mo     0.000000    0.000000   15.480000    ( 0.0000,  0.0000,  0.0000)
  37 B      1.525000    1.525000   17.005000    ( 0.0000,  0.0000,  0.0000)
  38 Mo     0.000000    3.050000   15.480000    ( 0.0000,  0.0000,  0.0000)
  39 B      1.525000    4.575000   17.005000    ( 0.0000,  0.0000,  0.0000)
  40 Mo     3.050000    0.000000   15.480000    ( 0.0000,  0.0000,  0.0000)
  41 B      4.575000    1.525000   17.005000    ( 0.0000,  0.0000,  0.0000)
  42 Mo     3.050000    3.050000   15.480000    ( 0.0000,  0.0000,  0.0000)
  43 B      4.575000    4.575000   17.005000    ( 0.0000,  0.0000,  0.0000)
  44 Pt     1.761494    2.961494   18.805000    ( 0.0000,  0.0000,  0.0000)
  45 Pt     4.161494    2.961494   18.805000    ( 0.0000,  0.0000,  0.0000)
  46 H      2.961494    2.961494   20.305000    ( 0.0000,  0.0000,  0.0000)

Unit cell:
           periodic     x           y           z      points  spacing
  1. axis:    yes    7.467048    0.000000    0.000000    36     0.2074
  2. axis:    yes    0.000000    7.467048    0.000000    36     0.2074
  3. axis:    yes    0.000000    0.000000   25.005000   124     0.2017

  Lengths:   7.467048   7.467048  25.005000
  Angles:   90.000000  90.000000  90.000000

Effective grid spacing dv^(1/3) = 0.2055

     iter     time        total  log10-change:
                         energy   eigst   dens
iter:   1 07:50:38  -848.445945        c
iter:   2 07:52:55 -1893.041896        c -1.02
iter:   3 07:54:31  -639.106439        c -0.56
iter:   4 07:56:46  -424.389072        c -1.09
iter:   5 07:59:20  -378.872206        c -1.41
iter:   6 08:02:32  -351.834382        c -1.51
iter:   7 08:05:21  -351.736129        c -1.58
iter:   8 08:08:04  -368.492097        c -1.60
iter:   9 08:10:50  -346.087558        c -1.59
iter:  10 08:14:00  -340.694560        c -1.78
iter:  11 08:16:53  -355.084721        c -1.84
iter:  12 08:19:45  -341.443362        c -1.75
iter:  13 08:22:51  -340.543727        c -1.90
iter:  14 08:26:10  -339.059157        c -1.90
iter:  15 08:30:13  -346.738641        c -1.97
iter:  16 08:34:23  -341.348863        c -1.87
iter:  17 08:39:05  -339.468494        c -1.92
iter:  18 08:43:43  -351.489169        c -2.05
iter:  19 08:47:56  -354.388353        c -1.75
iter:  20 08:52:15  -341.201425        c -1.83
iter:  21 08:55:54  -341.578351        c -2.04
iter:  22 08:58:33  -340.837501        c -2.08
iter:  23 09:00:45  -338.884139        c -2.17
iter:  24 09:03:33  -338.564963        c -2.31
iter:  25 09:06:08  -338.989465        c -2.38
iter:  26 09:08:36  -338.131702        c -2.23
iter:  27 09:11:10  -338.016506        c -2.55
iter:  28 09:13:26  -338.189686        c -2.68
iter:  29 09:15:51  -339.216425        c -2.64
iter:  30 09:18:18  -338.088370        c -2.29
iter:  31 09:20:44  -338.025871        c -2.77
iter:  32 09:22:48  -338.011804        c -2.89
iter:  33 09:24:54  -337.998897        c -2.98
iter:  34 09:27:30  -337.990129        c -2.97
iter:  35 09:29:29  -338.001918        c -3.02
iter:  36 09:31:49  -338.025234        c -2.83
iter:  37 09:34:34  -337.978909        c -2.87
iter:  38 09:37:02  -337.968630        c -3.12
iter:  39 09:40:02  -337.977902        c -3.28
iter:  40 09:42:29  -337.969419        c -3.18
iter:  41 09:44:50  -337.966214        c -3.20
iter:  42 09:47:10  -337.956773        c -3.29
iter:  43 09:50:16  -337.971345        c -3.22
iter:  44 09:53:04  -337.958093        c -3.21
iter:  45 09:55:46  -337.972693        c -3.45
iter:  46 09:58:20  -337.960880        c -3.14
iter:  47 10:00:27  -337.956594        c -3.46
iter:  48 10:03:18  -337.957970c       c -3.60
iter:  49 10:06:14  -337.954541c       c -3.51
iter:  50 10:09:16  -337.956543c       c -3.59
iter:  51 10:11:55  -337.960273c       c -3.58
iter:  52 10:15:03  -337.956986c       c -3.50
iter:  53 10:17:28  -337.955982c       c -3.62
iter:  54 10:20:31  -337.964504        c -3.50
iter:  55 10:23:07  -337.961780        c -3.41
iter:  56 10:25:43  -337.956020        c -3.43
iter:  57 10:27:52  -337.953884        c -3.76
iter:  58 10:30:34  -337.955297c       c -3.69
iter:  59 10:33:06  -337.957004c       c -3.78
iter:  60 10:35:23  -337.954906c       c -3.73
iter:  61 10:38:02  -337.964257        c -3.59
iter:  62 10:40:49  -337.955442        c -3.39
iter:  63 10:43:22  -337.957414        c -3.82
iter:  64 10:45:59  -337.955252c       c -3.71
iter:  65 10:48:31  -337.954973c       c -3.89
iter:  66 10:51:02  -337.955430c       c -3.95
iter:  67 10:53:36  -337.954263c       c -4.00
iter:  68 10:56:44  -337.955308c       c -3.81
iter:  69 10:59:12  -337.956084c       c -4.02c

Converged after 69 iterations.

Dipole moment: (-13.477558, -13.050741, -0.103766) |e|*Ang

Energy contributions relative to reference atoms: (reference = -2929756.787298)

Kinetic:        +55.924904
Potential:      -26.580655
External:        +0.000000
XC:            -363.887793
Entropy (-ST):   -3.538199
Local:           -1.643440
SIC:             +0.000000
--------------------------
Free energy:   -339.725183
Extrapolated:  -337.956084

Showing only first 2 kpts
 Kpt  Band  Eigenvalues  Occupancy
  0   336     -0.06807    1.29568
  0   337     -0.05838    1.25084
  0   338     -0.04256    1.17539
  0   339     -0.00287    0.97877

  1   336     -0.08176    1.35679
  1   337     -0.06478    1.28060
  1   338     -0.05694    1.24410
  1   339     -0.05207    1.22105


Fermi level: -0.00712

No gap
No difference between direct/indirect transitions
Timing:                              incl.     excl.
-----------------------------------------------------------
Basic WFS set positions:             0.000     0.000   0.0% |
Basis functions set positions:       0.169     0.169   0.0% |
LCAO WFS Initialize:                 0.399     0.084   0.0% |
 Hamiltonian:                        0.314     0.000   0.0% |
  Atomic:                            0.153     0.002   0.0% |
   XC Correction:                    0.151     0.151   0.0% |
  Calculate atomic Hamiltonians:     0.024     0.024   0.0% |
  Communicate:                       0.000     0.000   0.0% |
  Hartree integrate/restrict:        0.010     0.010   0.0% |
  Initialize Hamiltonian:            0.001     0.001   0.0% |
  Poisson:                           0.078     0.006   0.0% |
   Communicate from 1D:              0.008     0.008   0.0% |
   Communicate from 2D:              0.007     0.007   0.0% |
   Communicate to 1D:                0.008     0.008   0.0% |
   Communicate to 2D:                0.012     0.012   0.0% |
   FFT 1D:                           0.014     0.014   0.0% |
   FFT 2D:                           0.023     0.023   0.0% |
  XC 3D grid:                        0.043     0.043   0.0% |
  vbar:                              0.004     0.004   0.0% |
P tci:                               4.582     4.582   0.0% |
SCF-cycle:                       11380.177     0.229   0.0% |
 Density:                         4695.955     0.001   0.0% |
  Atomic density matrices:           1.230     1.230   0.0% |
  Mix:                               9.492     9.492   0.1% |
  Multipole moments:                 0.019     0.019   0.0% |
  Normalize:                         0.009     0.009   0.0% |
  Pseudo density:                 4685.203     0.034   0.0% |
   Calculate density matrix:        13.788    13.788   0.1% |
   Construct density:             4671.380  4671.380  41.0% |---------------|
   Symmetrize density:               0.001     0.001   0.0% |
 Hamiltonian:                       24.370     0.003   0.0% |
  Atomic:                           10.762     0.121   0.0% |
   XC Correction:                   10.641    10.641   0.1% |
  Calculate atomic Hamiltonians:     1.631     1.631   0.0% |
  Communicate:                       0.000     0.000   0.0% |
  Hartree integrate/restrict:        0.717     0.717   0.0% |
  Poisson:                           5.377     0.440   0.0% |
   Communicate from 1D:              0.613     0.613   0.0% |
   Communicate from 2D:              0.534     0.534   0.0% |
   Communicate to 1D:                0.446     0.446   0.0% |
   Communicate to 2D:                0.718     0.718   0.0% |
   FFT 1D:                           1.014     1.014   0.0% |
   FFT 2D:                           1.611     1.611   0.0% |
  XC 3D grid:                        4.881     4.881   0.0% |
  vbar:                              0.998     0.998   0.0% |
 LCAO eigensolver:                6659.624     2.056   0.0% |
  Calculate projections:           119.569   119.569   1.0% |
  DenseAtomicCorrection:           317.370   317.370   2.8% ||
  Distribute overlap matrix:         4.199     4.199   0.0% |
  Orbital Layouts:                5377.084  5377.084  47.2% |------------------|
  Potential matrix:                753.579   753.579   6.6% |--|
  Sum over cells:                   85.768    85.768   0.8% |
ST tci:                              1.766     1.766   0.0% |
Set symmetry:                        0.000     0.000   0.0% |
TCI: Evaluate splines:               0.677     0.677   0.0% |
mktci:                               0.023     0.023   0.0% |
Other:                               4.585     4.585   0.0% |
-----------------------------------------------------------
Total:                                     11392.379 100.0%

Memory usage: 4.71 GiB
Date: Mon Mar  2 10:59:12 2026
