
  ___ ___ ___ _ _ _  
 |   |   |_  | | | | 
 | | | | | . | | | | 
 |__ |  _|___|_____|  25.7.0
 |___|_|             

User:   mikei@Z790-AORUS-ELITE-AX
Date:   Tue Mar  3 04:03:41 2026
Arch:   x86_64
Pid:    89048
CWD:    /home/mikei/Dokumenty/code/cemea/ocx
Python: 3.10.16
gpaw:   /home/mikei/.pyenv/versions/cemea-env/lib/python3.10/site-packages/gpaw
_gpaw:  /home/mikei/.pyenv/versions/cemea-env/lib/python3.10/site-packages/
        _gpaw.cpython-310-x86_64-linux-gnu.so
ase:    /home/mikei/.pyenv/versions/cemea-env/lib/python3.10/site-packages/ase (version 3.27.0)
numpy:  /home/mikei/.pyenv/versions/cemea-env/lib/python3.10/site-packages/numpy (version 2.2.6)
scipy:  /home/mikei/.pyenv/versions/cemea-env/lib/python3.10/site-packages/scipy (version 1.15.3)
libxc:  2.x.y
units:  Angstrom and eV
cores: 1
OpenMP: False
OMP_NUM_THREADS: 1

Input parameters:
  basis: dzp
  convergence: {density: 0.0001,
                eigenstates: 1e-05,
                energy: 1e-05}
  kpts: [4 4 1]
  mode: lcao

System changes: positions, numbers, cell, pbc, initial_charges, initial_magmoms 

Initialize ...

species:
  Ni:
    name: Nickel
    id: 1802175e8de9ea26d9f4394ec1a7d564
    Z: 28.0
    valence: 16
    core: 12
    charge: 0.0
    file: /home/mikei/.pyenv/versions/cemea-env/lib/python3.10/site-packages/gpaw_data/setups/Ni.LDA.gz
    compensation charges: {type: gauss,
                           rc: 0.36,
                           lmax: 2}
    cutoffs: {filter: 2.14,
              core: 1.98}
    projectors:
      #              energy  rcut
      - 4s(2.00)    -5.858   1.164
      - 3p(6.00)   -71.266   1.207
      - 4p(0.00)    -1.338   1.207
      - 3d(8.00)    -9.141   1.138
      -  s          21.353   1.164
      -  d          18.071   1.138
  
    # LCAO basis set for Ni:
    #   Name: dzp
    #   File: /home/mikei/.pyenv/versions/cemea-env/lib/python3.10/site-packages/gpaw_data/setups/Ni.dzp.basis.gz
    #   Number of radial functions: 9
    #   Number of spherical harmonics: 27
    #     l=0, rc=8.5156 Bohr: 4s-sz confined orbital
    #     l=1, rc=2.9375 Bohr: 3p-sz confined orbital
    #     l=1, rc=12.4062 Bohr: 4p-sz confined orbital
    #     l=2, rc=4.6875 Bohr: 3d-sz confined orbital
    #     l=0, rc=4.9688 Bohr: 4s-dz split-valence wave
    #     l=1, rc=2.0781 Bohr: 3p-dz split-valence wave
    #     l=1, rc=7.5469 Bohr: 4p-dz split-valence wave
    #     l=2, rc=2.9375 Bohr: 3d-dz split-valence wave
    #     l=1, rc=8.5156 Bohr: p-type Gaussian polarization
    #   Number of RI-basis functions 0

  Mo:
    name: Molybdenum
    id: ac24daaf086600a00ce6d19a74574df1
    Z: 42.0
    valence: 14
    core: 28
    charge: 0.0
    file: /home/mikei/.pyenv/versions/cemea-env/lib/python3.10/site-packages/gpaw_data/setups/Mo.LDA.gz
    compensation charges: {type: gauss,
                           rc: 0.38,
                           lmax: 2}
    cutoffs: {filter: 2.16,
              core: 1.42}
    projectors:
      #              energy  rcut
      - 4s(2.00)   -64.384   1.238
      - 5s(1.00)    -4.319   1.238
      - 4p(6.00)   -38.595   1.296
      - 5p(0.00)    -1.161   1.296
      - 4d(5.00)    -3.933   1.296
      -  d          23.278   1.296
  
    # LCAO basis set for Mo:
    #   Name: dzp
    #   File: /home/mikei/.pyenv/versions/cemea-env/lib/python3.10/site-packages/gpaw_data/setups/Mo.dzp.basis.gz
    #   Number of radial functions: 11
    #   Number of spherical harmonics: 29
    #     l=0, rc=3.5469 Bohr: 4s-sz confined orbital
    #     l=0, rc=10.0469 Bohr: 5s-sz confined orbital
    #     l=1, rc=4.0781 Bohr: 4p-sz confined orbital
    #     l=1, rc=14.0938 Bohr: 5p-sz confined orbital
    #     l=2, rc=7.2031 Bohr: 4d-sz confined orbital
    #     l=0, rc=2.1250 Bohr: 4s-dz split-valence wave
    #     l=0, rc=6.1250 Bohr: 5s-dz split-valence wave
    #     l=1, rc=2.5469 Bohr: 4p-dz split-valence wave
    #     l=1, rc=8.7656 Bohr: 5p-dz split-valence wave
    #     l=2, rc=4.2344 Bohr: 4d-dz split-valence wave
    #     l=1, rc=10.0469 Bohr: p-type Gaussian polarization
    #   Number of RI-basis functions 0

  B:
    name: Boron
    id: 02e2e0e88ef95f403158802f6b0f4231
    Z: 5.0
    valence: 3
    core: 2
    charge: 0.0
    file: /home/mikei/.pyenv/versions/cemea-env/lib/python3.10/site-packages/gpaw_data/setups/B.LDA.gz
    compensation charges: {type: gauss,
                           rc: 0.20,
                           lmax: 2}
    cutoffs: {filter: 1.14,
              core: 1.42}
    projectors:
      #              energy  rcut
      - 2s(2.00)    -9.383   0.635
      - 2p(1.00)    -3.714   0.635
      -  s          17.828   0.635
      -  p          23.498   0.635
      -  d           0.000   0.635
  
    # LCAO basis set for B:
    #   Name: dzp
    #   File: /home/mikei/.pyenv/versions/cemea-env/lib/python3.10/site-packages/gpaw_data/setups/B.dzp.basis.gz
    #   Number of radial functions: 5
    #   Number of spherical harmonics: 13
    #     l=0, rc=6.6719 Bohr: 2s-sz confined orbital
    #     l=1, rc=8.2188 Bohr: 2p-sz confined orbital
    #     l=0, rc=3.7500 Bohr: 2s-dz split-valence wave
    #     l=1, rc=4.6094 Bohr: 2p-dz split-valence wave
    #     l=2, rc=8.2188 Bohr: d-type Gaussian polarization
    #   Number of RI-basis functions 0

Reference energy: -2094753.544081  # eV

Spin-paired calculation

Convergence criteria:
 Maximum [total energy] change in last 3 cyles: 1e-05 eV / valence electron
 Maximum integral of absolute [dens]ity change: 0.0001 electrons / valence electron
 Maximum integral of absolute [eigenst]ate change: 1e-05 eV^2 / valence electron
 Maximum number of scf [iter]ations: 333
 (Square brackets indicate name in SCF output, whereas a 'c' in
 the SCF output indicates the quantity has converged.)

Symmetries present (total): 2

  ( 1  0  0)  ( 0  1  0)
  ( 0  1  0)  ( 1  0  0)
  ( 0  0  1)  ( 0  0  1)

16 k-points: 4 x 4 x 1 Monkhorst-Pack grid
6 k-points in the irreducible part of the Brillouin zone
       k-points in crystal coordinates                weights
   0:     0.12500000   -0.12500000    0.00000000          2/16
   1:     0.12500000    0.12500000    0.00000000          2/16
   2:     0.37500000   -0.37500000    0.00000000          2/16
   3:     0.37500000   -0.12500000    0.00000000          4/16
   4:     0.37500000    0.12500000    0.00000000          4/16
   5:     0.37500000    0.37500000    0.00000000          2/16

Wave functions: LCAO
  Diagonalizer: Serial LAPACK
  Atomic Correction: dense with blas
  Data-type: complex
 

Occupation numbers: Fermi-Dirac:
  width: 0.1000  # eV
 

Eigensolver
   LCAO using direct dense diagonalizer 

Densities:
  Coarse grid: 36*36*124 grid
  Fine grid: 72*72*248 grid
  Total Charge: 0.000000 

Density mixing:
  Method: separate
  Backend: pulay
  Linear mixing parameter: 0.05
  old densities: 5
  Damping of long wavelength oscillations: 50 

Hamiltonian:
  XC and Coulomb potentials evaluated on a 72*72*248 grid
  Using the LDA Exchange-Correlation functional
  Interpolation: tri-quintic (5. degree polynomial)
  Poisson solver: FastPoissonSolver using
    Stencil: 6*3+1=19 point O(h^6) finite-difference Laplacian
    FFT axes: [np.int64(0), np.int64(1), np.int64(2)]
    FST axes: []
 

Memory estimate:
  Process memory now: 4818.40 MiB
  Calculator: 863.98 MiB
    Density: 215.10 MiB
      Arrays: 31.88 MiB
      Localized functions: 170.96 MiB
      Mixer: 12.26 MiB
    Hamiltonian: 33.76 MiB
      Arrays: 20.84 MiB
      XC: 0.00 MiB
      Poisson: 0.00 MiB
      vbar: 12.91 MiB
    Wavefunctions: 615.13 MiB
      C [qnM]: 49.02 MiB
      S, T [2 x qmm]: 285.19 MiB
      P [aqMi]: 6.03 MiB
      BasisFunctions: 274.90 MiB
      Eigensolver: 0.00 MiB

Total number of cores used: 1

Number of atoms: 48
Number of atomic orbitals: 1248
Number of bands in calculation: 429
Number of valence electrons: 708
Bands to converge: occupied

... initialized

Initializing position-dependent things.

Density initialized from atomic densities
      .-----------------.  
     /|                 |  
    / |                 |  
   /  |                 |  
  /   |                 |  
 *    |                 |  
 |    |                 |  
 |    |                 |  
 |    |                 |  
 |    |                 |  
 |    | Ni    Ni        |  
 |    |                 |  
 |    NiB   Ni B        |  
 |    |                 |  
 |    B      B          |  
 | Mo |   Mo            |  
 |  Ni|   Ni    Ni      |  
 Mo   | Mo              |  
 | Ni | NNi   NNi   Ni  |  
 |    Ni    Ni    Ni    |  
 Ni   |Ni    Ni         |  
 |  NNi   NNi   NNi     |  
 | Ni | NNi   NNi   Ni  |  
 |    |                 |  
 Ni   NNi   NNi   Ni    |  
 |   Ni    Ni    Ni     |  
 |    |                 |  
 |    |                 |  
 |    |                 |  
 |    |                 |  
 |    |                 |  
 |    .-----------------.  
 |   /                 /   
 |  /                 /    
 | /                 /     
 |/                 /      
 *-----------------*       

Atomic positions and initial magnetic moments

Positions:
   0 Ni     1.244508    1.244508    8.000000    ( 0.0000,  0.0000,  0.0000)
   1 Ni     3.733524    1.244508    8.000000    ( 0.0000,  0.0000,  0.0000)
   2 Ni     6.222540    1.244508    8.000000    ( 0.0000,  0.0000,  0.0000)
   3 Ni     1.244508    3.733524    8.000000    ( 0.0000,  0.0000,  0.0000)
   4 Ni     3.733524    3.733524    8.000000    ( 0.0000,  0.0000,  0.0000)
   5 Ni     6.222540    3.733524    8.000000    ( 0.0000,  0.0000,  0.0000)
   6 Ni     1.244508    6.222540    8.000000    ( 0.0000,  0.0000,  0.0000)
   7 Ni     3.733524    6.222540    8.000000    ( 0.0000,  0.0000,  0.0000)
   8 Ni     6.222540    6.222540    8.000000    ( 0.0000,  0.0000,  0.0000)
   9 Ni     0.000000    0.000000    9.760000    ( 0.0000,  0.0000,  0.0000)
  10 Ni     2.489016    0.000000    9.760000    ( 0.0000,  0.0000,  0.0000)
  11 Ni     4.978032    0.000000    9.760000    ( 0.0000,  0.0000,  0.0000)
  12 Ni     0.000000    2.489016    9.760000    ( 0.0000,  0.0000,  0.0000)
  13 Ni     2.489016    2.489016    9.760000    ( 0.0000,  0.0000,  0.0000)
  14 Ni     4.978032    2.489016    9.760000    ( 0.0000,  0.0000,  0.0000)
  15 Ni     0.000000    4.978032    9.760000    ( 0.0000,  0.0000,  0.0000)
  16 Ni     2.489016    4.978032    9.760000    ( 0.0000,  0.0000,  0.0000)
  17 Ni     4.978032    4.978032    9.760000    ( 0.0000,  0.0000,  0.0000)
  18 Ni     1.244508    1.244508   11.520000    ( 0.0000,  0.0000,  0.0000)
  19 Ni     3.733524    1.244508   11.520000    ( 0.0000,  0.0000,  0.0000)
  20 Ni     6.222540    1.244508   11.520000    ( 0.0000,  0.0000,  0.0000)
  21 Ni     1.244508    3.733524   11.520000    ( 0.0000,  0.0000,  0.0000)
  22 Ni     3.733524    3.733524   11.520000    ( 0.0000,  0.0000,  0.0000)
  23 Ni     6.222540    3.733524   11.520000    ( 0.0000,  0.0000,  0.0000)
  24 Ni     1.244508    6.222540   11.520000    ( 0.0000,  0.0000,  0.0000)
  25 Ni     3.733524    6.222540   11.520000    ( 0.0000,  0.0000,  0.0000)
  26 Ni     6.222540    6.222540   11.520000    ( 0.0000,  0.0000,  0.0000)
  27 Ni     0.000000    0.000000   13.280000    ( 0.0000,  0.0000,  0.0000)
  28 Ni     2.489016    0.000000   13.280000    ( 0.0000,  0.0000,  0.0000)
  29 Ni     4.978032    0.000000   13.280000    ( 0.0000,  0.0000,  0.0000)
  30 Ni     0.000000    2.489016   13.280000    ( 0.0000,  0.0000,  0.0000)
  31 Ni     2.489016    2.489016   13.280000    ( 0.0000,  0.0000,  0.0000)
  32 Ni     4.978032    2.489016   13.280000    ( 0.0000,  0.0000,  0.0000)
  33 Ni     0.000000    4.978032   13.280000    ( 0.0000,  0.0000,  0.0000)
  34 Ni     2.489016    4.978032   13.280000    ( 0.0000,  0.0000,  0.0000)
  35 Ni     4.978032    4.978032   13.280000    ( 0.0000,  0.0000,  0.0000)
  36 Mo     0.000000    0.000000   15.480000    ( 0.0000,  0.0000,  0.0000)
  37 B      1.525000    1.525000   17.005000    ( 0.0000,  0.0000,  0.0000)
  38 Mo     0.000000    3.050000   15.480000    ( 0.0000,  0.0000,  0.0000)
  39 B      1.525000    4.575000   17.005000    ( 0.0000,  0.0000,  0.0000)
  40 Mo     3.050000    0.000000   15.480000    ( 0.0000,  0.0000,  0.0000)
  41 B      4.575000    1.525000   17.005000    ( 0.0000,  0.0000,  0.0000)
  42 Mo     3.050000    3.050000   15.480000    ( 0.0000,  0.0000,  0.0000)
  43 B      4.575000    4.575000   17.005000    ( 0.0000,  0.0000,  0.0000)
  44 Ni     1.761494    1.761494   18.805000    ( 0.0000,  0.0000,  0.0000)
  45 Ni     1.761494    4.161494   18.805000    ( 0.0000,  0.0000,  0.0000)
  46 Ni     4.161494    1.761494   18.805000    ( 0.0000,  0.0000,  0.0000)
  47 Ni     4.161494    4.161494   18.805000    ( 0.0000,  0.0000,  0.0000)

Unit cell:
           periodic     x           y           z      points  spacing
  1. axis:    yes    7.467048    0.000000    0.000000    36     0.2074
  2. axis:    yes    0.000000    7.467048    0.000000    36     0.2074
  3. axis:    yes    0.000000    0.000000   25.005000   124     0.2017

  Lengths:   7.467048   7.467048  25.005000
  Angles:   90.000000  90.000000  90.000000

Effective grid spacing dv^(1/3) = 0.2055

     iter     time        total  log10-change:
                         energy   eigst   dens
iter:   1 04:05:09  -706.839839        c
iter:   2 04:07:05 -2984.324169        c -1.08
iter:   3 04:08:46  -523.403550        c -0.47
iter:   4 04:10:21  -432.827772        c -1.31
iter:   5 04:12:13  -432.313266        c -1.44
iter:   6 04:13:40  -370.220190        c -1.52
iter:   7 04:15:01  -378.685616        c -1.60
iter:   8 04:16:21  -378.718711        c -1.51
iter:   9 04:18:22  -364.747270        c -1.61
iter:  10 04:19:58  -408.150244        c -1.61
iter:  11 04:22:10  -373.443016        c -1.48
iter:  12 04:24:10  -389.795193        c -1.66
iter:  13 04:26:01  -357.121563        c -1.46
iter:  14 04:28:07  -355.466350        c -1.81
iter:  15 04:29:29  -356.179978        c -1.79
iter:  16 04:31:16  -353.230064        c -1.82
iter:  17 04:32:54  -354.767655        c -1.89
iter:  18 04:34:36  -354.646649        c -1.85
iter:  19 04:36:25  -355.926109        c -1.90
iter:  20 04:37:49  -378.864949        c -1.93
iter:  21 04:39:26  -363.380087        c -1.66
iter:  22 04:41:27  -362.872675        c -1.78
iter:  23 04:43:21  -360.133561        c -1.84
iter:  24 04:44:51  -355.550893        c -1.92
iter:  25 04:46:17  -355.435091        c -2.02
iter:  26 04:48:15  -377.012203        c -1.96
iter:  27 04:50:22  -360.505464        c -1.64
iter:  28 04:51:51  -358.331769        c -1.87
iter:  29 04:53:21  -358.522998        c -1.94
iter:  30 04:54:41  -357.790625        c -2.02
iter:  31 04:56:32  -353.767604        c -2.01
iter:  32 04:58:14  -368.616427        c -1.99
iter:  33 04:59:45  -355.338550        c -1.72
iter:  34 05:02:14  -353.573466        c -2.05
iter:  35 05:04:07  -353.093831        c -2.05
iter:  36 05:05:49  -354.024442        c -2.17
iter:  37 05:07:52  -351.401195        c -2.06
iter:  38 05:09:39  -354.607520        c -2.15
iter:  39 05:11:01  -350.066874        c -1.97
iter:  40 05:13:02  -350.101244        c -2.40
iter:  41 05:15:20  -349.665843        c -2.37
iter:  42 05:17:08  -349.762788        c -2.63
iter:  43 05:18:36  -349.471376        c -2.48
iter:  44 05:20:38  -349.829049        c -2.77
iter:  45 05:22:20  -349.456795        c -2.47
iter:  46 05:23:57  -349.402810        c -2.79
iter:  47 05:26:06  -349.430489        c -2.85
iter:  48 05:27:20  -349.627990        c -2.82
iter:  49 05:29:08  -349.381560        c -2.56
iter:  50 05:30:36  -349.513251        c -2.89
iter:  51 05:32:14  -349.364658        c -2.65
iter:  52 05:33:56  -349.349786        c -2.90
iter:  53 05:35:47  -349.389413        c -2.97
iter:  54 05:37:13  -349.320315        c -2.80
iter:  55 05:39:11  -349.340868        c -3.02
iter:  56 05:41:13  -349.351023        c -3.01
iter:  57 05:42:59  -349.503041        c -2.93
iter:  58 05:44:15  -349.276399        c -2.74
iter:  59 05:45:47  -349.281763        c -3.36
iter:  60 05:47:56  -349.286847        c -3.14
iter:  61 05:49:30  -349.270861        c -3.15
iter:  62 05:50:48  -349.270830        c -3.39
iter:  63 05:53:02  -349.295376        c -3.52
iter:  64 05:55:11  -349.271133        c -3.16
iter:  65 05:57:09  -349.270942        c -3.42
iter:  66 05:59:04  -349.267945c       c -3.46
iter:  67 06:01:07  -349.267511c       c -3.56
iter:  68 06:02:52  -349.296587        c -3.55
iter:  69 06:04:36  -349.272853        c -3.02
iter:  70 06:06:04  -349.272815        c -3.51
iter:  71 06:07:52  -349.273341c       c -3.42
iter:  72 06:09:49  -349.270073c       c -3.38
iter:  73 06:12:31  -349.267625c       c -3.55
iter:  74 06:14:10  -349.271002c       c -3.72
iter:  75 06:15:56  -349.266330c       c -3.41
iter:  76 06:17:34  -349.266168c       c -4.18c

Converged after 76 iterations.

Dipole moment: (-13.705729, -13.705729, 0.593089) |e|*Ang

Energy contributions relative to reference atoms: (reference = -2094753.544081)

Kinetic:       +117.743382
Potential:      -68.506071
External:        +0.000000
XC:            -394.814146
Entropy (-ST):   -3.782987
Local:           -1.797840
SIC:             +0.000000
--------------------------
Free energy:   -351.157662
Extrapolated:  -349.266168

Showing only first 2 kpts
 Kpt  Band  Eigenvalues  Occupancy
  0   352      0.24458    1.30443
  0   353      0.25572    1.25310
  0   354      0.26221    1.22250
  0   355      0.27016    1.18436

  1   352      0.24485    1.30321
  1   353      0.25382    1.26197
  1   354      0.26536    1.20746
  1   355      0.27480    1.16189


Fermi level: 0.30746

No gap
No difference between direct/indirect transitions
Timing:                              incl.     excl.
-----------------------------------------------------------
Basic WFS set positions:             0.001     0.001   0.0% |
Basis functions set positions:       0.171     0.171   0.0% |
LCAO WFS Initialize:                 0.398     0.087   0.0% |
 Hamiltonian:                        0.311     0.000   0.0% |
  Atomic:                            0.155     0.002   0.0% |
   XC Correction:                    0.154     0.154   0.0% |
  Calculate atomic Hamiltonians:     0.024     0.024   0.0% |
  Communicate:                       0.000     0.000   0.0% |
  Hartree integrate/restrict:        0.010     0.010   0.0% |
  Initialize Hamiltonian:            0.001     0.001   0.0% |
  Poisson:                           0.072     0.005   0.0% |
   Communicate from 1D:              0.007     0.007   0.0% |
   Communicate from 2D:              0.007     0.007   0.0% |
   Communicate to 1D:                0.007     0.007   0.0% |
   Communicate to 2D:                0.009     0.009   0.0% |
   FFT 1D:                           0.015     0.015   0.0% |
   FFT 2D:                           0.021     0.021   0.0% |
  XC 3D grid:                        0.044     0.044   0.0% |
  vbar:                              0.004     0.004   0.0% |
P tci:                               3.585     3.585   0.0% |
SCF-cycle:                        8022.547     0.239   0.0% |
 Density:                         3846.999     0.001   0.0% |
  Atomic density matrices:           1.123     1.123   0.0% |
  Mix:                               9.886     9.886   0.1% |
  Multipole moments:                 0.021     0.021   0.0% |
  Normalize:                         0.007     0.007   0.0% |
  Pseudo density:                 3835.961     0.029   0.0% |
   Calculate density matrix:        12.200    12.200   0.2% |
   Construct density:             3823.444  3823.444  47.6% |------------------|
   Symmetrize density:               0.287     0.287   0.0% |
 Hamiltonian:                       25.504     0.003   0.0% |
  Atomic:                           11.578     0.130   0.0% |
   XC Correction:                   11.448    11.448   0.1% |
  Calculate atomic Hamiltonians:     1.875     1.875   0.0% |
  Communicate:                       0.000     0.000   0.0% |
  Hartree integrate/restrict:        0.767     0.767   0.0% |
  Poisson:                           5.483     0.385   0.0% |
   Communicate from 1D:              0.622     0.622   0.0% |
   Communicate from 2D:              0.550     0.550   0.0% |
   Communicate to 1D:                0.494     0.494   0.0% |
   Communicate to 2D:                0.695     0.695   0.0% |
   FFT 1D:                           1.067     1.067   0.0% |
   FFT 2D:                           1.671     1.671   0.0% |
  XC 3D grid:                        4.980     4.980   0.1% |
  vbar:                              0.816     0.816   0.0% |
 LCAO eigensolver:                4149.804     1.451   0.0% |
  Calculate projections:            94.148    94.148   1.2% |
  DenseAtomicCorrection:           265.523   265.523   3.3% ||
  Distribute overlap matrix:         3.207     3.207   0.0% |
  Orbital Layouts:                2905.433  2905.433  36.2% |-------------|
  Potential matrix:                809.000   809.000  10.1% |---|
  Sum over cells:                   71.042    71.042   0.9% |
ST tci:                              1.774     1.774   0.0% |
Set symmetry:                        0.000     0.000   0.0% |
TCI: Evaluate splines:               0.314     0.314   0.0% |
mktci:                               0.024     0.024   0.0% |
Other:                               4.257     4.257   0.1% |
-----------------------------------------------------------
Total:                                      8033.071 100.0%

Memory usage: 4.71 GiB
Date: Tue Mar  3 06:17:34 2026
