
  ___ ___ ___ _ _ _  
 |   |   |_  | | | | 
 | | | | | . | | | | 
 |__ |  _|___|_____|  25.7.0
 |___|_|             

User:   mikei@Z790-AORUS-ELITE-AX
Date:   Tue Mar  3 06:17:34 2026
Arch:   x86_64
Pid:    89048
CWD:    /home/mikei/Dokumenty/code/cemea/ocx
Python: 3.10.16
gpaw:   /home/mikei/.pyenv/versions/cemea-env/lib/python3.10/site-packages/gpaw
_gpaw:  /home/mikei/.pyenv/versions/cemea-env/lib/python3.10/site-packages/
        _gpaw.cpython-310-x86_64-linux-gnu.so
ase:    /home/mikei/.pyenv/versions/cemea-env/lib/python3.10/site-packages/ase (version 3.27.0)
numpy:  /home/mikei/.pyenv/versions/cemea-env/lib/python3.10/site-packages/numpy (version 2.2.6)
scipy:  /home/mikei/.pyenv/versions/cemea-env/lib/python3.10/site-packages/scipy (version 1.15.3)
libxc:  2.x.y
units:  Angstrom and eV
cores: 1
OpenMP: False
OMP_NUM_THREADS: 1

Input parameters:
  basis: dzp
  convergence: {density: 0.0001,
                eigenstates: 1e-05,
                energy: 1e-05}
  kpts: [4 4 1]
  mode: lcao

System changes: positions, numbers, cell, pbc, initial_charges, initial_magmoms 

Initialize ...

species:
  Ni:
    name: Nickel
    id: 1802175e8de9ea26d9f4394ec1a7d564
    Z: 28.0
    valence: 16
    core: 12
    charge: 0.0
    file: /home/mikei/.pyenv/versions/cemea-env/lib/python3.10/site-packages/gpaw_data/setups/Ni.LDA.gz
    compensation charges: {type: gauss,
                           rc: 0.36,
                           lmax: 2}
    cutoffs: {filter: 2.14,
              core: 1.98}
    projectors:
      #              energy  rcut
      - 4s(2.00)    -5.858   1.164
      - 3p(6.00)   -71.266   1.207
      - 4p(0.00)    -1.338   1.207
      - 3d(8.00)    -9.141   1.138
      -  s          21.353   1.164
      -  d          18.071   1.138
  
    # LCAO basis set for Ni:
    #   Name: dzp
    #   File: /home/mikei/.pyenv/versions/cemea-env/lib/python3.10/site-packages/gpaw_data/setups/Ni.dzp.basis.gz
    #   Number of radial functions: 9
    #   Number of spherical harmonics: 27
    #     l=0, rc=8.5156 Bohr: 4s-sz confined orbital
    #     l=1, rc=2.9375 Bohr: 3p-sz confined orbital
    #     l=1, rc=12.4062 Bohr: 4p-sz confined orbital
    #     l=2, rc=4.6875 Bohr: 3d-sz confined orbital
    #     l=0, rc=4.9688 Bohr: 4s-dz split-valence wave
    #     l=1, rc=2.0781 Bohr: 3p-dz split-valence wave
    #     l=1, rc=7.5469 Bohr: 4p-dz split-valence wave
    #     l=2, rc=2.9375 Bohr: 3d-dz split-valence wave
    #     l=1, rc=8.5156 Bohr: p-type Gaussian polarization
    #   Number of RI-basis functions 0

  Mo:
    name: Molybdenum
    id: ac24daaf086600a00ce6d19a74574df1
    Z: 42.0
    valence: 14
    core: 28
    charge: 0.0
    file: /home/mikei/.pyenv/versions/cemea-env/lib/python3.10/site-packages/gpaw_data/setups/Mo.LDA.gz
    compensation charges: {type: gauss,
                           rc: 0.38,
                           lmax: 2}
    cutoffs: {filter: 2.16,
              core: 1.42}
    projectors:
      #              energy  rcut
      - 4s(2.00)   -64.384   1.238
      - 5s(1.00)    -4.319   1.238
      - 4p(6.00)   -38.595   1.296
      - 5p(0.00)    -1.161   1.296
      - 4d(5.00)    -3.933   1.296
      -  d          23.278   1.296
  
    # LCAO basis set for Mo:
    #   Name: dzp
    #   File: /home/mikei/.pyenv/versions/cemea-env/lib/python3.10/site-packages/gpaw_data/setups/Mo.dzp.basis.gz
    #   Number of radial functions: 11
    #   Number of spherical harmonics: 29
    #     l=0, rc=3.5469 Bohr: 4s-sz confined orbital
    #     l=0, rc=10.0469 Bohr: 5s-sz confined orbital
    #     l=1, rc=4.0781 Bohr: 4p-sz confined orbital
    #     l=1, rc=14.0938 Bohr: 5p-sz confined orbital
    #     l=2, rc=7.2031 Bohr: 4d-sz confined orbital
    #     l=0, rc=2.1250 Bohr: 4s-dz split-valence wave
    #     l=0, rc=6.1250 Bohr: 5s-dz split-valence wave
    #     l=1, rc=2.5469 Bohr: 4p-dz split-valence wave
    #     l=1, rc=8.7656 Bohr: 5p-dz split-valence wave
    #     l=2, rc=4.2344 Bohr: 4d-dz split-valence wave
    #     l=1, rc=10.0469 Bohr: p-type Gaussian polarization
    #   Number of RI-basis functions 0

  B:
    name: Boron
    id: 02e2e0e88ef95f403158802f6b0f4231
    Z: 5.0
    valence: 3
    core: 2
    charge: 0.0
    file: /home/mikei/.pyenv/versions/cemea-env/lib/python3.10/site-packages/gpaw_data/setups/B.LDA.gz
    compensation charges: {type: gauss,
                           rc: 0.20,
                           lmax: 2}
    cutoffs: {filter: 1.14,
              core: 1.42}
    projectors:
      #              energy  rcut
      - 2s(2.00)    -9.383   0.635
      - 2p(1.00)    -3.714   0.635
      -  s          17.828   0.635
      -  p          23.498   0.635
      -  d           0.000   0.635
  
    # LCAO basis set for B:
    #   Name: dzp
    #   File: /home/mikei/.pyenv/versions/cemea-env/lib/python3.10/site-packages/gpaw_data/setups/B.dzp.basis.gz
    #   Number of radial functions: 5
    #   Number of spherical harmonics: 13
    #     l=0, rc=6.6719 Bohr: 2s-sz confined orbital
    #     l=1, rc=8.2188 Bohr: 2p-sz confined orbital
    #     l=0, rc=3.7500 Bohr: 2s-dz split-valence wave
    #     l=1, rc=4.6094 Bohr: 2p-dz split-valence wave
    #     l=2, rc=8.2188 Bohr: d-type Gaussian polarization
    #   Number of RI-basis functions 0

  H:
    name: Hydrogen
    id: 4766778ce56282eaa64abeb28b7c1de3
    Z: 1.0
    valence: 1
    core: 0
    charge: 0.0
    file: /home/mikei/.pyenv/versions/cemea-env/lib/python3.10/site-packages/gpaw_data/setups/H.LDA.gz
    compensation charges: {type: gauss,
                           rc: 0.15,
                           lmax: 2}
    cutoffs: {filter: 0.85,
              core: 0.53}
    projectors:
      #              energy  rcut
      - 1s(1.00)    -6.353   0.476
      -  s          20.858   0.476
      -  p           0.000   0.476
  
    # LCAO basis set for H:
    #   Name: dzp
    #   File: /home/mikei/.pyenv/versions/cemea-env/lib/python3.10/site-packages/gpaw_data/setups/H.dzp.basis.gz
    #   Number of radial functions: 3
    #   Number of spherical harmonics: 5
    #     l=0, rc=6.4219 Bohr: 1s-sz confined orbital
    #     l=0, rc=3.6094 Bohr: 1s-dz split-valence wave
    #     l=1, rc=6.4219 Bohr: p-type Gaussian polarization
    #   Number of RI-basis functions 0

Reference energy: -2094765.673040  # eV

Spin-paired calculation

Convergence criteria:
 Maximum [total energy] change in last 3 cyles: 1e-05 eV / valence electron
 Maximum integral of absolute [dens]ity change: 0.0001 electrons / valence electron
 Maximum integral of absolute [eigenst]ate change: 1e-05 eV^2 / valence electron
 Maximum number of scf [iter]ations: 333
 (Square brackets indicate name in SCF output, whereas a 'c' in
 the SCF output indicates the quantity has converged.)

Symmetries present (total): 2

  ( 1  0  0)  ( 0  1  0)
  ( 0  1  0)  ( 1  0  0)
  ( 0  0  1)  ( 0  0  1)

16 k-points: 4 x 4 x 1 Monkhorst-Pack grid
6 k-points in the irreducible part of the Brillouin zone
       k-points in crystal coordinates                weights
   0:     0.12500000   -0.12500000    0.00000000          2/16
   1:     0.12500000    0.12500000    0.00000000          2/16
   2:     0.37500000   -0.37500000    0.00000000          2/16
   3:     0.37500000   -0.12500000    0.00000000          4/16
   4:     0.37500000    0.12500000    0.00000000          4/16
   5:     0.37500000    0.37500000    0.00000000          2/16

Wave functions: LCAO
  Diagonalizer: Serial LAPACK
  Atomic Correction: dense with blas
  Data-type: complex
 

Occupation numbers: Fermi-Dirac:
  width: 0.1000  # eV
 

Eigensolver
   LCAO using direct dense diagonalizer 

Densities:
  Coarse grid: 36*36*124 grid
  Fine grid: 72*72*248 grid
  Total Charge: 0.000000 

Density mixing:
  Method: separate
  Backend: pulay
  Linear mixing parameter: 0.05
  old densities: 5
  Damping of long wavelength oscillations: 50 

Hamiltonian:
  XC and Coulomb potentials evaluated on a 72*72*248 grid
  Using the LDA Exchange-Correlation functional
  Interpolation: tri-quintic (5. degree polynomial)
  Poisson solver: FastPoissonSolver using
    Stencil: 6*3+1=19 point O(h^6) finite-difference Laplacian
    FFT axes: [np.int64(0), np.int64(1), np.int64(2)]
    FST axes: []
 

Memory estimate:
  Process memory now: 4818.40 MiB
  Calculator: 867.49 MiB
    Density: 215.33 MiB
      Arrays: 31.88 MiB
      Localized functions: 171.19 MiB
      Mixer: 12.26 MiB
    Hamiltonian: 33.78 MiB
      Arrays: 20.84 MiB
      XC: 0.00 MiB
      Poisson: 0.00 MiB
      vbar: 12.93 MiB
    Wavefunctions: 618.39 MiB
      C [qnM]: 49.33 MiB
      S, T [2 x qmm]: 287.48 MiB
      P [aqMi]: 6.09 MiB
      BasisFunctions: 275.50 MiB
      Eigensolver: 0.00 MiB

Total number of cores used: 1

Number of atoms: 49
Number of atomic orbitals: 1253
Number of bands in calculation: 430
Number of valence electrons: 709
Bands to converge: occupied

... initialized

Initializing position-dependent things.

Density initialized from atomic densities
      .-----------------.  
     /|                 |  
    / |                 |  
   /  |                 |  
  /   |                 |  
 *    |                 |  
 |    |                 |  
 |    |                 |  
 |    |                 |  
 |    |   H             |  
 |    | Ni    Ni        |  
 |    |                 |  
 |    NiB   Ni B        |  
 |    |                 |  
 |    B      B          |  
 | Mo |   Mo            |  
 |  Ni|   Ni    Ni      |  
 Mo   | Mo              |  
 | Ni | NNi   NNi   Ni  |  
 |    Ni    Ni    Ni    |  
 Ni   |Ni    Ni         |  
 |  NNi   NNi   NNi     |  
 | Ni | NNi   NNi   Ni  |  
 |    |                 |  
 Ni   NNi   NNi   Ni    |  
 |   Ni    Ni    Ni     |  
 |    |                 |  
 |    |                 |  
 |    |                 |  
 |    |                 |  
 |    |                 |  
 |    .-----------------.  
 |   /                 /   
 |  /                 /    
 | /                 /     
 |/                 /      
 *-----------------*       

Atomic positions and initial magnetic moments

Positions:
   0 Ni     1.244508    1.244508    8.000000    ( 0.0000,  0.0000,  0.0000)
   1 Ni     3.733524    1.244508    8.000000    ( 0.0000,  0.0000,  0.0000)
   2 Ni     6.222540    1.244508    8.000000    ( 0.0000,  0.0000,  0.0000)
   3 Ni     1.244508    3.733524    8.000000    ( 0.0000,  0.0000,  0.0000)
   4 Ni     3.733524    3.733524    8.000000    ( 0.0000,  0.0000,  0.0000)
   5 Ni     6.222540    3.733524    8.000000    ( 0.0000,  0.0000,  0.0000)
   6 Ni     1.244508    6.222540    8.000000    ( 0.0000,  0.0000,  0.0000)
   7 Ni     3.733524    6.222540    8.000000    ( 0.0000,  0.0000,  0.0000)
   8 Ni     6.222540    6.222540    8.000000    ( 0.0000,  0.0000,  0.0000)
   9 Ni     0.000000    0.000000    9.760000    ( 0.0000,  0.0000,  0.0000)
  10 Ni     2.489016    0.000000    9.760000    ( 0.0000,  0.0000,  0.0000)
  11 Ni     4.978032    0.000000    9.760000    ( 0.0000,  0.0000,  0.0000)
  12 Ni     0.000000    2.489016    9.760000    ( 0.0000,  0.0000,  0.0000)
  13 Ni     2.489016    2.489016    9.760000    ( 0.0000,  0.0000,  0.0000)
  14 Ni     4.978032    2.489016    9.760000    ( 0.0000,  0.0000,  0.0000)
  15 Ni     0.000000    4.978032    9.760000    ( 0.0000,  0.0000,  0.0000)
  16 Ni     2.489016    4.978032    9.760000    ( 0.0000,  0.0000,  0.0000)
  17 Ni     4.978032    4.978032    9.760000    ( 0.0000,  0.0000,  0.0000)
  18 Ni     1.244508    1.244508   11.520000    ( 0.0000,  0.0000,  0.0000)
  19 Ni     3.733524    1.244508   11.520000    ( 0.0000,  0.0000,  0.0000)
  20 Ni     6.222540    1.244508   11.520000    ( 0.0000,  0.0000,  0.0000)
  21 Ni     1.244508    3.733524   11.520000    ( 0.0000,  0.0000,  0.0000)
  22 Ni     3.733524    3.733524   11.520000    ( 0.0000,  0.0000,  0.0000)
  23 Ni     6.222540    3.733524   11.520000    ( 0.0000,  0.0000,  0.0000)
  24 Ni     1.244508    6.222540   11.520000    ( 0.0000,  0.0000,  0.0000)
  25 Ni     3.733524    6.222540   11.520000    ( 0.0000,  0.0000,  0.0000)
  26 Ni     6.222540    6.222540   11.520000    ( 0.0000,  0.0000,  0.0000)
  27 Ni     0.000000    0.000000   13.280000    ( 0.0000,  0.0000,  0.0000)
  28 Ni     2.489016    0.000000   13.280000    ( 0.0000,  0.0000,  0.0000)
  29 Ni     4.978032    0.000000   13.280000    ( 0.0000,  0.0000,  0.0000)
  30 Ni     0.000000    2.489016   13.280000    ( 0.0000,  0.0000,  0.0000)
  31 Ni     2.489016    2.489016   13.280000    ( 0.0000,  0.0000,  0.0000)
  32 Ni     4.978032    2.489016   13.280000    ( 0.0000,  0.0000,  0.0000)
  33 Ni     0.000000    4.978032   13.280000    ( 0.0000,  0.0000,  0.0000)
  34 Ni     2.489016    4.978032   13.280000    ( 0.0000,  0.0000,  0.0000)
  35 Ni     4.978032    4.978032   13.280000    ( 0.0000,  0.0000,  0.0000)
  36 Mo     0.000000    0.000000   15.480000    ( 0.0000,  0.0000,  0.0000)
  37 B      1.525000    1.525000   17.005000    ( 0.0000,  0.0000,  0.0000)
  38 Mo     0.000000    3.050000   15.480000    ( 0.0000,  0.0000,  0.0000)
  39 B      1.525000    4.575000   17.005000    ( 0.0000,  0.0000,  0.0000)
  40 Mo     3.050000    0.000000   15.480000    ( 0.0000,  0.0000,  0.0000)
  41 B      4.575000    1.525000   17.005000    ( 0.0000,  0.0000,  0.0000)
  42 Mo     3.050000    3.050000   15.480000    ( 0.0000,  0.0000,  0.0000)
  43 B      4.575000    4.575000   17.005000    ( 0.0000,  0.0000,  0.0000)
  44 Ni     1.761494    1.761494   18.805000    ( 0.0000,  0.0000,  0.0000)
  45 Ni     1.761494    4.161494   18.805000    ( 0.0000,  0.0000,  0.0000)
  46 Ni     4.161494    1.761494   18.805000    ( 0.0000,  0.0000,  0.0000)
  47 Ni     4.161494    4.161494   18.805000    ( 0.0000,  0.0000,  0.0000)
  48 H      2.961494    2.961494   20.305000    ( 0.0000,  0.0000,  0.0000)

Unit cell:
           periodic     x           y           z      points  spacing
  1. axis:    yes    7.467048    0.000000    0.000000    36     0.2074
  2. axis:    yes    0.000000    7.467048    0.000000    36     0.2074
  3. axis:    yes    0.000000    0.000000   25.005000   124     0.2017

  Lengths:   7.467048   7.467048  25.005000
  Angles:   90.000000  90.000000  90.000000

Effective grid spacing dv^(1/3) = 0.2055

     iter     time        total  log10-change:
                         energy   eigst   dens
iter:   1 06:18:08  -727.783291        c
iter:   2 06:20:12 -3174.638110        c -1.06
iter:   3 06:22:05  -528.639435        c -0.46
iter:   4 06:23:46  -447.911645        c -1.29
iter:   5 06:25:21  -457.296625        c -1.40
iter:   6 06:27:04  -388.988983        c -1.49
iter:   7 06:28:35  -375.916072        c -1.54
iter:   8 06:30:27  -374.591870        c -1.52
iter:   9 06:32:01  -386.330184        c -1.63
iter:  10 06:33:54  -375.174567        c -1.53
iter:  11 06:35:16  -401.350121        c -1.54
iter:  12 06:36:51  -378.647200        c -1.51
iter:  13 06:38:30  -379.405513        c -1.60
iter:  14 06:40:07  -365.560963        c -1.61
iter:  15 06:41:49  -359.791746        c -1.79
iter:  16 06:43:25  -372.745071        c -1.89
iter:  17 06:45:07  -377.091104        c -1.65
iter:  18 06:46:58  -371.042681        c -1.64
iter:  19 06:48:15  -371.416109        c -1.75
iter:  20 06:50:08  -356.993707        c -1.71
iter:  21 06:51:57  -358.586183        c -1.96
iter:  22 06:53:49  -358.515987        c -2.00
iter:  23 06:55:42  -380.128868        c -2.02
iter:  24 06:57:41  -384.563070        c -1.64
iter:  25 06:59:30  -364.728633        c -1.56
iter:  26 07:01:35  -360.809847        c -1.89
iter:  27 07:03:09  -360.139514        c -1.88
iter:  28 07:05:04  -361.927579        c -1.87
iter:  29 07:06:47  -369.136918        c -1.83
iter:  30 07:09:21  -356.944424        c -1.73
iter:  31 07:10:56  -366.494671        c -2.07
iter:  32 07:12:23  -357.278266        c -1.80
iter:  33 07:13:45  -355.205891        c -2.05
iter:  34 07:15:35  -354.070774        c -2.24
iter:  35 07:17:18  -359.399208        c -2.24
iter:  36 07:18:58  -353.976607        c -1.94
iter:  37 07:20:25  -354.036577        c -2.37
iter:  38 07:22:00  -353.652936        c -2.39
iter:  39 07:24:17  -353.120116        c -2.47
iter:  40 07:26:10  -353.041052        c -2.68
iter:  41 07:27:33  -353.934530        c -2.67
iter:  42 07:29:15  -352.971748        c -2.32
iter:  43 07:30:36  -352.849010        c -2.76
iter:  44 07:32:29  -352.884475        c -2.89
iter:  45 07:34:25  -352.819732        c -2.78
iter:  46 07:35:44  -352.799477        c -2.92
iter:  47 07:37:25  -352.798129        c -2.97
iter:  48 07:38:52  -352.896909        c -2.97
iter:  49 07:40:25  -352.777338        c -2.71
iter:  50 07:41:45  -352.765210        c -2.94
iter:  51 07:43:55  -352.755154        c -3.03
iter:  52 07:46:01  -352.770394        c -3.06
iter:  53 07:47:42  -352.739119        c -2.93
iter:  54 07:49:33  -352.733404        c -3.17
iter:  55 07:51:13  -352.727088        c -3.20
iter:  56 07:52:48  -352.753772        c -3.30
iter:  57 07:54:24  -352.737354        c -3.04
iter:  58 07:55:45  -352.729191        c -3.21
iter:  59 07:57:19  -352.733628        c -3.16
iter:  60 07:58:48  -352.724839        c -3.21
iter:  61 08:01:13  -352.723847        c -3.34
iter:  62 08:04:23  -352.721952c       c -3.35
iter:  63 08:06:32  -352.723947c       c -3.42
iter:  64 08:09:11  -352.727102c       c -3.36
iter:  65 08:11:44  -352.723429c       c -3.31
iter:  66 08:13:54  -352.746342        c -3.37
iter:  67 08:16:10  -352.723954        c -3.09
iter:  68 08:18:58  -352.728043        c -3.37
iter:  69 08:21:28  -352.722904c       c -3.31
iter:  70 08:24:00  -352.723056c       c -3.45
iter:  71 08:26:36  -352.723266c       c -3.41
iter:  72 08:29:01  -352.721631c       c -3.43
iter:  73 08:31:25  -352.724944c       c -3.44
iter:  74 08:33:47  -352.727637c       c -3.41
iter:  75 08:35:59  -352.727552c       c -3.41
iter:  76 08:38:10  -352.723990c       c -3.34
iter:  77 08:40:32  -352.724249c       c -3.44
iter:  78 08:43:38  -352.731073c       c -3.43
iter:  79 08:46:30  -352.725241c       c -3.25
iter:  80 08:48:56  -352.727054c       c -3.39
iter:  81 08:51:21  -352.727141c       c -3.37
iter:  82 08:54:30  -352.732901c       c -3.39
iter:  83 08:57:06  -352.732698c       c -3.31
iter:  84 08:59:34  -352.728961c       c -3.24
iter:  85 09:01:31  -352.725780c       c -3.30
iter:  86 09:03:10  -352.729334c       c -3.66
iter:  87 09:05:04  -352.722156        c -3.48
iter:  88 09:06:56  -352.719558        c -3.69
iter:  89 09:08:27  -352.718817c       c -4.17c

Converged after 89 iterations.

Dipole moment: (-13.683009, -13.683009, 0.416800) |e|*Ang

Energy contributions relative to reference atoms: (reference = -2094765.673040)

Kinetic:       +116.234702
Potential:      -68.369523
External:        +0.000000
XC:            -396.948991
Entropy (-ST):   -3.784481
Local:           -1.742764
SIC:             +0.000000
--------------------------
Free energy:   -354.611057
Extrapolated:  -352.718817

Showing only first 2 kpts
 Kpt  Band  Eigenvalues  Occupancy
  0   352      0.19455    1.33245
  0   353      0.20548    1.28298
  0   354      0.21787    1.22506
  0   355      0.21960    1.21682

  1   352      0.20030    1.30662
  1   353      0.20095    1.30368
  1   354      0.22166    1.20696
  1   355      0.22174    1.20660


Fermi level: 0.26366

No gap
No difference between direct/indirect transitions
Timing:                              incl.     excl.
-----------------------------------------------------------
Basic WFS set positions:             0.001     0.001   0.0% |
Basis functions set positions:       0.175     0.175   0.0% |
LCAO WFS Initialize:                 0.415     0.086   0.0% |
 Hamiltonian:                        0.329     0.000   0.0% |
  Atomic:                            0.162     0.002   0.0% |
   XC Correction:                    0.160     0.160   0.0% |
  Calculate atomic Hamiltonians:     0.030     0.030   0.0% |
  Communicate:                       0.000     0.000   0.0% |
  Hartree integrate/restrict:        0.009     0.009   0.0% |
  Initialize Hamiltonian:            0.001     0.001   0.0% |
  Poisson:                           0.077     0.005   0.0% |
   Communicate from 1D:              0.007     0.007   0.0% |
   Communicate from 2D:              0.007     0.007   0.0% |
   Communicate to 1D:                0.009     0.009   0.0% |
   Communicate to 2D:                0.010     0.010   0.0% |
   FFT 1D:                           0.014     0.014   0.0% |
   FFT 2D:                           0.025     0.025   0.0% |
  XC 3D grid:                        0.046     0.046   0.0% |
  vbar:                              0.004     0.004   0.0% |
P tci:                               3.643     3.643   0.0% |
SCF-cycle:                       10242.858     0.334   0.0% |
 Density:                         4656.047     0.001   0.0% |
  Atomic density matrices:           1.323     1.323   0.0% |
  Mix:                              11.916    11.916   0.1% |
  Multipole moments:                 0.025     0.025   0.0% |
  Normalize:                         0.010     0.010   0.0% |
  Pseudo density:                 4642.771     0.031   0.0% |
   Calculate density matrix:        15.150    15.150   0.1% |
   Construct density:             4627.248  4627.248  45.1% |-----------------|
   Symmetrize density:               0.341     0.341   0.0% |
 Hamiltonian:                       30.569     0.004   0.0% |
  Atomic:                           14.023     0.159   0.0% |
   XC Correction:                   13.863    13.863   0.1% |
  Calculate atomic Hamiltonians:     2.228     2.228   0.0% |
  Communicate:                       0.000     0.000   0.0% |
  Hartree integrate/restrict:        0.889     0.889   0.0% |
  Poisson:                           6.439     0.465   0.0% |
   Communicate from 1D:              0.739     0.739   0.0% |
   Communicate from 2D:              0.657     0.657   0.0% |
   Communicate to 1D:                0.598     0.598   0.0% |
   Communicate to 2D:                0.707     0.707   0.0% |
   FFT 1D:                           1.266     1.266   0.0% |
   FFT 2D:                           2.006     2.006   0.0% |
  XC 3D grid:                        5.936     5.936   0.1% |
  vbar:                              1.050     1.050   0.0% |
 LCAO eigensolver:                5555.908     1.767   0.0% |
  Calculate projections:           114.547   114.547   1.1% |
  DenseAtomicCorrection:           334.488   334.488   3.3% ||
  Distribute overlap matrix:         4.574     4.574   0.0% |
  Orbital Layouts:                4033.646  4033.646  39.3% |---------------|
  Potential matrix:                981.149   981.149   9.6% |---|
  Sum over cells:                   85.736    85.736   0.8% |
ST tci:                              1.773     1.773   0.0% |
Set symmetry:                        0.000     0.000   0.0% |
TCI: Evaluate splines:               0.392     0.392   0.0% |
mktci:                               0.025     0.025   0.0% |
Other:                               4.236     4.236   0.0% |
-----------------------------------------------------------
Total:                                     10253.518 100.0%

Memory usage: 4.71 GiB
Date: Tue Mar  3 09:08:27 2026
