
  ___ ___ ___ _ _ _  
 |   |   |_  | | | | 
 | | | | | . | | | | 
 |__ |  _|___|_____|  25.7.0
 |___|_|             

User:   mikei@Z790-AORUS-ELITE-AX
Date:   Sat Feb 21 14:00:27 2026
Arch:   x86_64
Pid:    89048
CWD:    /home/mikei/Dokumenty/code/cemea/ocx
Python: 3.10.16
gpaw:   /home/mikei/.pyenv/versions/cemea-env/lib/python3.10/site-packages/gpaw
_gpaw:  /home/mikei/.pyenv/versions/cemea-env/lib/python3.10/site-packages/
        _gpaw.cpython-310-x86_64-linux-gnu.so
ase:    /home/mikei/.pyenv/versions/cemea-env/lib/python3.10/site-packages/ase (version 3.27.0)
numpy:  /home/mikei/.pyenv/versions/cemea-env/lib/python3.10/site-packages/numpy (version 2.2.6)
scipy:  /home/mikei/.pyenv/versions/cemea-env/lib/python3.10/site-packages/scipy (version 1.15.3)
libxc:  2.x.y
units:  Angstrom and eV
cores: 1
OpenMP: False
OMP_NUM_THREADS: 1

Input parameters:
  basis: dzp
  convergence: {density: 0.0001,
                eigenstates: 1e-05,
                energy: 1e-05}
  kpts: [4 4 1]
  mode: lcao

System changes: positions, numbers, cell, pbc, initial_charges, initial_magmoms 

Initialize ...

species:
  B:
    name: Boron
    id: 02e2e0e88ef95f403158802f6b0f4231
    Z: 5.0
    valence: 3
    core: 2
    charge: 0.0
    file: /home/mikei/.pyenv/versions/cemea-env/lib/python3.10/site-packages/gpaw_data/setups/B.LDA.gz
    compensation charges: {type: gauss,
                           rc: 0.20,
                           lmax: 2}
    cutoffs: {filter: 1.14,
              core: 1.42}
    projectors:
      #              energy  rcut
      - 2s(2.00)    -9.383   0.635
      - 2p(1.00)    -3.714   0.635
      -  s          17.828   0.635
      -  p          23.498   0.635
      -  d           0.000   0.635
  
    # LCAO basis set for B:
    #   Name: dzp
    #   File: /home/mikei/.pyenv/versions/cemea-env/lib/python3.10/site-packages/gpaw_data/setups/B.dzp.basis.gz
    #   Number of radial functions: 5
    #   Number of spherical harmonics: 13
    #     l=0, rc=6.6719 Bohr: 2s-sz confined orbital
    #     l=1, rc=8.2188 Bohr: 2p-sz confined orbital
    #     l=0, rc=3.7500 Bohr: 2s-dz split-valence wave
    #     l=1, rc=4.6094 Bohr: 2p-dz split-valence wave
    #     l=2, rc=8.2188 Bohr: d-type Gaussian polarization
    #   Number of RI-basis functions 0

  Mo:
    name: Molybdenum
    id: ac24daaf086600a00ce6d19a74574df1
    Z: 42.0
    valence: 14
    core: 28
    charge: 0.0
    file: /home/mikei/.pyenv/versions/cemea-env/lib/python3.10/site-packages/gpaw_data/setups/Mo.LDA.gz
    compensation charges: {type: gauss,
                           rc: 0.38,
                           lmax: 2}
    cutoffs: {filter: 2.16,
              core: 1.42}
    projectors:
      #              energy  rcut
      - 4s(2.00)   -64.384   1.238
      - 5s(1.00)    -4.319   1.238
      - 4p(6.00)   -38.595   1.296
      - 5p(0.00)    -1.161   1.296
      - 4d(5.00)    -3.933   1.296
      -  d          23.278   1.296
  
    # LCAO basis set for Mo:
    #   Name: dzp
    #   File: /home/mikei/.pyenv/versions/cemea-env/lib/python3.10/site-packages/gpaw_data/setups/Mo.dzp.basis.gz
    #   Number of radial functions: 11
    #   Number of spherical harmonics: 29
    #     l=0, rc=3.5469 Bohr: 4s-sz confined orbital
    #     l=0, rc=10.0469 Bohr: 5s-sz confined orbital
    #     l=1, rc=4.0781 Bohr: 4p-sz confined orbital
    #     l=1, rc=14.0938 Bohr: 5p-sz confined orbital
    #     l=2, rc=7.2031 Bohr: 4d-sz confined orbital
    #     l=0, rc=2.1250 Bohr: 4s-dz split-valence wave
    #     l=0, rc=6.1250 Bohr: 5s-dz split-valence wave
    #     l=1, rc=2.5469 Bohr: 4p-dz split-valence wave
    #     l=1, rc=8.7656 Bohr: 5p-dz split-valence wave
    #     l=2, rc=4.2344 Bohr: 4d-dz split-valence wave
    #     l=1, rc=10.0469 Bohr: p-type Gaussian polarization
    #   Number of RI-basis functions 0

  H:
    name: Hydrogen
    id: 4766778ce56282eaa64abeb28b7c1de3
    Z: 1.0
    valence: 1
    core: 0
    charge: 0.0
    file: /home/mikei/.pyenv/versions/cemea-env/lib/python3.10/site-packages/gpaw_data/setups/H.LDA.gz
    compensation charges: {type: gauss,
                           rc: 0.15,
                           lmax: 2}
    cutoffs: {filter: 0.85,
              core: 0.53}
    projectors:
      #              energy  rcut
      - 1s(1.00)    -6.353   0.476
      -  s          20.858   0.476
      -  p           0.000   0.476
  
    # LCAO basis set for H:
    #   Name: dzp
    #   File: /home/mikei/.pyenv/versions/cemea-env/lib/python3.10/site-packages/gpaw_data/setups/H.dzp.basis.gz
    #   Number of radial functions: 3
    #   Number of spherical harmonics: 5
    #     l=0, rc=6.4219 Bohr: 1s-sz confined orbital
    #     l=0, rc=3.6094 Bohr: 1s-dz split-valence wave
    #     l=1, rc=6.4219 Bohr: p-type Gaussian polarization
    #   Number of RI-basis functions 0

Reference energy: -1108161.630743  # eV

Spin-paired calculation

Convergence criteria:
 Maximum [total energy] change in last 3 cyles: 1e-05 eV / valence electron
 Maximum integral of absolute [dens]ity change: 0.0001 electrons / valence electron
 Maximum integral of absolute [eigenst]ate change: 1e-05 eV^2 / valence electron
 Maximum number of scf [iter]ations: 333
 (Square brackets indicate name in SCF output, whereas a 'c' in
 the SCF output indicates the quantity has converged.)

Symmetries present (total): 1

  ( 1  0  0)
  ( 0  1  0)
  ( 0  0  1)

16 k-points: 4 x 4 x 1 Monkhorst-Pack grid
8 k-points in the irreducible part of the Brillouin zone
       k-points in crystal coordinates                weights
   0:     0.12500000   -0.37500000    0.00000000          2/16
   1:     0.12500000   -0.12500000    0.00000000          2/16
   2:     0.12500000    0.12500000    0.00000000          2/16
   3:     0.12500000    0.37500000    0.00000000          2/16
   4:     0.37500000   -0.37500000    0.00000000          2/16
   5:     0.37500000   -0.12500000    0.00000000          2/16
   6:     0.37500000    0.12500000    0.00000000          2/16
   7:     0.37500000    0.37500000    0.00000000          2/16

Wave functions: LCAO
  Diagonalizer: Serial LAPACK
  Atomic Correction: dense with blas
  Data-type: complex
 

Occupation numbers: Fermi-Dirac:
  width: 0.1000  # eV
 

Eigensolver
   LCAO using direct dense diagonalizer 

Densities:
  Coarse grid: 164*32*88 grid
  Fine grid: 328*64*176 grid
  Total Charge: 0.000000 

Density mixing:
  Method: separate
  Backend: pulay
  Linear mixing parameter: 0.05
  old densities: 5
  Damping of long wavelength oscillations: 50 

Hamiltonian:
  XC and Coulomb potentials evaluated on a 328*64*176 grid
  Using the LDA Exchange-Correlation functional
  Interpolation: tri-quintic (5. degree polynomial)
  Poisson solver: FastPoissonSolver using
    Stencil: 6*3+1=19 point O(h^6) finite-difference Laplacian
    FFT axes: [np.int64(0), np.int64(1), np.int64(2)]
    FST axes: []
 

Memory estimate:
  Process memory now: 4595.48 MiB
  Calculator: 455.07 MiB
    Density: 187.70 MiB
      Arrays: 91.61 MiB
      Localized functions: 60.86 MiB
      Mixer: 35.23 MiB
    Hamiltonian: 63.90 MiB
      Arrays: 59.90 MiB
      XC: 0.00 MiB
      Poisson: 0.00 MiB
      vbar: 4.00 MiB
    Wavefunctions: 203.46 MiB
      C [qnM]: 6.11 MiB
      S, T [2 x qmm]: 49.66 MiB
      P [aqMi]: 1.17 MiB
      BasisFunctions: 146.52 MiB
      Eigensolver: 0.00 MiB

Total number of cores used: 1

Number of atoms: 23
Number of atomic orbitals: 451
Number of bands in calculation: 111
Number of valence electrons: 177
Bands to converge: occupied

... initialized

Initializing position-dependent things.

Density initialized from atomic densities
     .--------------------------------------------------------------------------------.  
    /|                                                                                |  
   / |                                                                                |  
  /  |                                                                                |  
 *   |                                                                                |  
 |   |                                                                                |  
 |   |                                                                                |  
 |   |                                                                                |  
 |   |                                                                                |  
 |   |                                                                                |  
 |   |                                                                                |  
 |   |                      B      B       B H    B       B      B                    |  
 |   |                                                                                |  
 |   |                    B      B       B      B       B      B                      |  
 |   |                        Mo      Mo     Mo      Mo     Mo                        |  
 |   |                                                                                |  
 |   |                      Mo      Mo     Mo      Mo     Mo                          |  
 |   |                                                                                |  
 |   |                                                                                |  
 |   |                                                                                |  
 |   |                                                                                |  
 |   |                                                                                |  
 |   .--------------------------------------------------------------------------------.  
 |  /                                                                                /   
 | /                                                                                /    
 |/                                                                                /     
 *--------------------------------------------------------------------------------*      

Atomic positions and initial magnetic moments

Positions:
   0 B      9.525000    1.525000    9.525000    ( 0.0000,  0.0000,  0.0000)
   1 B      9.525000    4.575000    9.525000    ( 0.0000,  0.0000,  0.0000)
   2 Mo    11.050000    0.000000    8.000000    ( 0.0000,  0.0000,  0.0000)
   3 B     12.575000    1.525000    9.525000    ( 0.0000,  0.0000,  0.0000)
   4 Mo    11.050000    3.050000    8.000000    ( 0.0000,  0.0000,  0.0000)
   5 B     12.575000    4.575000    9.525000    ( 0.0000,  0.0000,  0.0000)
   6 Mo    14.100000    0.000000    8.000000    ( 0.0000,  0.0000,  0.0000)
   7 B     15.625000    1.525000    9.525000    ( 0.0000,  0.0000,  0.0000)
   8 Mo    14.100000    3.050000    8.000000    ( 0.0000,  0.0000,  0.0000)
   9 B     15.625000    4.575000    9.525000    ( 0.0000,  0.0000,  0.0000)
  10 Mo    17.150000    0.000000    8.000000    ( 0.0000,  0.0000,  0.0000)
  11 B     18.675000    1.525000    9.525000    ( 0.0000,  0.0000,  0.0000)
  12 Mo    17.150000    3.050000    8.000000    ( 0.0000,  0.0000,  0.0000)
  13 B     18.675000    4.575000    9.525000    ( 0.0000,  0.0000,  0.0000)
  14 Mo    20.200000    0.000000    8.000000    ( 0.0000,  0.0000,  0.0000)
  15 B     21.725000    1.525000    9.525000    ( 0.0000,  0.0000,  0.0000)
  16 Mo    20.200000    3.050000    8.000000    ( 0.0000,  0.0000,  0.0000)
  17 B     21.725000    4.575000    9.525000    ( 0.0000,  0.0000,  0.0000)
  18 Mo    23.250000    0.000000    8.000000    ( 0.0000,  0.0000,  0.0000)
  19 B     24.775000    1.525000    9.525000    ( 0.0000,  0.0000,  0.0000)
  20 Mo    23.250000    3.050000    8.000000    ( 0.0000,  0.0000,  0.0000)
  21 B     24.775000    4.575000    9.525000    ( 0.0000,  0.0000,  0.0000)
  22 H     17.150000    2.356818   11.025000    ( 0.0000,  0.0000,  0.0000)

Unit cell:
           periodic     x           y           z      points  spacing
  1. axis:    yes   32.775000    0.000000    0.000000   164     0.1998
  2. axis:    yes    0.000000    6.100000    0.000000    32     0.1906
  3. axis:    yes    0.000000    0.000000   17.525000    88     0.1991

  Lengths:  32.775000   6.100000  17.525000
  Angles:   90.000000  90.000000  90.000000

Effective grid spacing dv^(1/3) = 0.1965

     iter     time        total  log10-change:
                         energy   eigst   dens
iter:   1 14:00:41  -147.610432        c
iter:   2 14:00:55  -141.357785        c -0.92
iter:   3 14:01:19  -139.966454        c -1.02
iter:   4 14:01:39  -137.695329        c -1.02
iter:   5 14:02:03  -132.774820        c -1.10
iter:   6 14:02:25  -132.372377        c -1.34
iter:   7 14:02:44  -133.547383        c -1.44
iter:   8 14:03:03  -131.883331        c -1.29
iter:   9 14:03:24  -131.760090        c -1.60
iter:  10 14:03:41  -131.667270        c -1.69
iter:  11 14:04:02  -131.570966        c -1.79
iter:  12 14:04:25  -131.572081        c -1.90
iter:  13 14:04:43  -131.622984        c -1.91
iter:  14 14:05:06  -131.480727        c -1.82
iter:  15 14:05:22  -131.451552        c -2.12
iter:  16 14:05:40  -131.458652        c -2.24
iter:  17 14:06:03  -131.442012        c -2.27
iter:  18 14:06:23  -131.448334        c -2.31
iter:  19 14:06:40  -131.446696        c -2.39
iter:  20 14:06:56  -131.443227        c -2.36
iter:  21 14:07:16  -131.433453        c -2.35
iter:  22 14:07:32  -131.434163        c -2.57
iter:  23 14:07:49  -131.427515        c -2.63
iter:  24 14:08:07  -131.432460        c -2.65
iter:  25 14:08:24  -131.429994        c -2.74
iter:  26 14:08:45  -131.429089        c -2.81
iter:  27 14:09:04  -131.428377c       c -2.71
iter:  28 14:09:27  -131.428600c       c -2.86
iter:  29 14:09:45  -131.425549        c -2.92
iter:  30 14:10:07  -131.428193        c -2.92
iter:  31 14:10:25  -131.426736        c -3.00
iter:  32 14:10:42  -131.425969        c -3.05
iter:  33 14:11:00  -131.426236c       c -2.98
iter:  34 14:11:16  -131.426589c       c -3.13
iter:  35 14:11:36  -131.425533c       c -3.21
iter:  36 14:11:57  -131.427612        c -3.24
iter:  37 14:12:16  -131.426688        c -3.26
iter:  38 14:12:38  -131.426386c       c -3.35
iter:  39 14:12:55  -131.426699c       c -3.30
iter:  40 14:13:13  -131.426890c       c -3.37
iter:  41 14:13:33  -131.426385c       c -3.43
iter:  42 14:13:51  -131.427239c       c -3.46
iter:  43 14:14:10  -131.426751c       c -3.49
iter:  44 14:14:26  -131.426563c       c -3.58
iter:  45 14:14:46  -131.426919c       c -3.54
iter:  46 14:15:07  -131.427076c       c -3.56
iter:  47 14:15:25  -131.426814c       c -3.68
iter:  48 14:15:44  -131.427157c       c -3.75
iter:  49 14:16:03  -131.426822c       c -3.75
iter:  50 14:16:19  -131.426724c       c -3.87
iter:  51 14:16:35  -131.426945c       c -3.89
iter:  52 14:16:50  -131.426969c       c -3.90
iter:  53 14:17:12  -131.426798c       c -3.97
iter:  54 14:17:31  -131.426904c       c -4.00
iter:  55 14:17:47  -131.426720c       c -4.03c

Converged after 55 iterations.

Dipole moment: (-0.000117, -9.482285, -0.584765) |e|*Ang

Energy contributions relative to reference atoms: (reference = -1108161.630743)

Kinetic:       -272.338903
Potential:     +182.257168
External:        +0.000000
XC:             -41.773067
Entropy (-ST):   -1.460298
Local:           +1.158230
SIC:             +0.000000
--------------------------
Free energy:   -132.156869
Extrapolated:  -131.426720

Showing only first 2 kpts
 Kpt  Band  Eigenvalues  Occupancy
  0    86     -3.98634    1.70638
  0    87     -3.97883    1.68705
  0    88     -3.91012    1.46118
  0    89     -3.87609    1.31732

  1    86     -3.84460    1.16953
  1    87     -3.81377    1.01707
  1    88     -3.78174    0.85788
  1    89     -3.62729    0.27630


Fermi level: -3.81036

No gap
No difference between direct/indirect transitions
Timing:                              incl.     excl.
-----------------------------------------------------------
Basic WFS set positions:             0.000     0.000   0.0% |
Basis functions set positions:       0.093     0.093   0.0% |
LCAO WFS Initialize:                 0.467     0.046   0.0% |
 Hamiltonian:                        0.421     0.000   0.0% |
  Atomic:                            0.083     0.001   0.0% |
   XC Correction:                    0.082     0.082   0.0% |
  Calculate atomic Hamiltonians:     0.008     0.008   0.0% |
  Communicate:                       0.000     0.000   0.0% |
  Hartree integrate/restrict:        0.017     0.017   0.0% |
  Initialize Hamiltonian:            0.002     0.002   0.0% |
  Poisson:                           0.200     0.015   0.0% |
   Communicate from 1D:              0.017     0.017   0.0% |
   Communicate from 2D:              0.016     0.016   0.0% |
   Communicate to 1D:                0.012     0.012   0.0% |
   Communicate to 2D:                0.016     0.016   0.0% |
   FFT 1D:                           0.026     0.026   0.0% |
   FFT 2D:                           0.098     0.098   0.0% |
  XC 3D grid:                        0.110     0.110   0.0% |
  vbar:                              0.002     0.002   0.0% |
P tci:                               0.439     0.439   0.0% |
SCF-cycle:                        1037.988     0.078   0.0% |
 Density:                          548.254     0.001   0.0% |
  Atomic density matrices:           0.147     0.147   0.0% |
  Mix:                               6.307     6.307   0.6% |
  Multipole moments:                 0.008     0.008   0.0% |
  Normalize:                         0.016     0.016   0.0% |
  Pseudo density:                  541.776     0.045   0.0% |
   Calculate density matrix:         1.165     1.165   0.1% |
   Construct density:              540.564   540.564  51.9% |--------------------|
   Symmetrize density:               0.001     0.001   0.0% |
 Hamiltonian:                       24.537     0.002   0.0% |
  Atomic:                            4.501     0.049   0.0% |
   XC Correction:                    4.452     4.452   0.4% |
  Calculate atomic Hamiltonians:     0.430     0.430   0.0% |
  Communicate:                       0.000     0.000   0.0% |
  Hartree integrate/restrict:        0.898     0.898   0.1% |
  Poisson:                          11.193     0.834   0.1% |
   Communicate from 1D:              0.940     0.940   0.1% |
   Communicate from 2D:              0.916     0.916   0.1% |
   Communicate to 1D:                0.679     0.679   0.1% |
   Communicate to 2D:                0.910     0.910   0.1% |
   FFT 1D:                           1.468     1.468   0.1% |
   FFT 2D:                           5.446     5.446   0.5% |
  XC 3D grid:                        6.906     6.906   0.7% |
  vbar:                              0.607     0.607   0.1% |
 LCAO eigensolver:                 465.119     0.170   0.0% |
  Calculate projections:            24.850    24.850   2.4% ||
  DenseAtomicCorrection:            38.251    38.251   3.7% ||
  Distribute overlap matrix:         0.160     0.160   0.0% |
  Orbital Layouts:                 325.997   325.997  31.3% |------------|
  Potential matrix:                 72.935    72.935   7.0% |--|
  Sum over cells:                    2.756     2.756   0.3% |
ST tci:                              0.136     0.136   0.0% |
Set symmetry:                        0.000     0.000   0.0% |
TCI: Evaluate splines:               0.168     0.168   0.0% |
mktci:                               0.003     0.003   0.0% |
Other:                               1.534     1.534   0.1% |
-----------------------------------------------------------
Total:                                      1040.828 100.0%

Memory usage: 4.49 GiB
Date: Sat Feb 21 14:17:47 2026
