
  ___ ___ ___ _ _ _  
 |   |   |_  | | | | 
 | | | | | . | | | | 
 |__ |  _|___|_____|  25.7.0
 |___|_|             

User:   mikei@Z790-AORUS-ELITE-AX
Date:   Sat Feb 21 15:52:43 2026
Arch:   x86_64
Pid:    89048
CWD:    /home/mikei/Dokumenty/code/cemea/ocx
Python: 3.10.16
gpaw:   /home/mikei/.pyenv/versions/cemea-env/lib/python3.10/site-packages/gpaw
_gpaw:  /home/mikei/.pyenv/versions/cemea-env/lib/python3.10/site-packages/
        _gpaw.cpython-310-x86_64-linux-gnu.so
ase:    /home/mikei/.pyenv/versions/cemea-env/lib/python3.10/site-packages/ase (version 3.27.0)
numpy:  /home/mikei/.pyenv/versions/cemea-env/lib/python3.10/site-packages/numpy (version 2.2.6)
scipy:  /home/mikei/.pyenv/versions/cemea-env/lib/python3.10/site-packages/scipy (version 1.15.3)
libxc:  2.x.y
units:  Angstrom and eV
cores: 1
OpenMP: False
OMP_NUM_THREADS: 1

Input parameters:
  basis: dzp
  convergence: {density: 0.0001,
                eigenstates: 1e-05,
                energy: 1e-05}
  kpts: [4 4 1]
  mode: lcao

System changes: positions, numbers, cell, pbc, initial_charges, initial_magmoms 

Initialize ...

species:
  Mo:
    name: Molybdenum
    id: ac24daaf086600a00ce6d19a74574df1
    Z: 42.0
    valence: 14
    core: 28
    charge: 0.0
    file: /home/mikei/.pyenv/versions/cemea-env/lib/python3.10/site-packages/gpaw_data/setups/Mo.LDA.gz
    compensation charges: {type: gauss,
                           rc: 0.38,
                           lmax: 2}
    cutoffs: {filter: 2.16,
              core: 1.42}
    projectors:
      #              energy  rcut
      - 4s(2.00)   -64.384   1.238
      - 5s(1.00)    -4.319   1.238
      - 4p(6.00)   -38.595   1.296
      - 5p(0.00)    -1.161   1.296
      - 4d(5.00)    -3.933   1.296
      -  d          23.278   1.296
  
    # LCAO basis set for Mo:
    #   Name: dzp
    #   File: /home/mikei/.pyenv/versions/cemea-env/lib/python3.10/site-packages/gpaw_data/setups/Mo.dzp.basis.gz
    #   Number of radial functions: 11
    #   Number of spherical harmonics: 29
    #     l=0, rc=3.5469 Bohr: 4s-sz confined orbital
    #     l=0, rc=10.0469 Bohr: 5s-sz confined orbital
    #     l=1, rc=4.0781 Bohr: 4p-sz confined orbital
    #     l=1, rc=14.0938 Bohr: 5p-sz confined orbital
    #     l=2, rc=7.2031 Bohr: 4d-sz confined orbital
    #     l=0, rc=2.1250 Bohr: 4s-dz split-valence wave
    #     l=0, rc=6.1250 Bohr: 5s-dz split-valence wave
    #     l=1, rc=2.5469 Bohr: 4p-dz split-valence wave
    #     l=1, rc=8.7656 Bohr: 5p-dz split-valence wave
    #     l=2, rc=4.2344 Bohr: 4d-dz split-valence wave
    #     l=1, rc=10.0469 Bohr: p-type Gaussian polarization
    #   Number of RI-basis functions 0

  B:
    name: Boron
    id: 02e2e0e88ef95f403158802f6b0f4231
    Z: 5.0
    valence: 3
    core: 2
    charge: 0.0
    file: /home/mikei/.pyenv/versions/cemea-env/lib/python3.10/site-packages/gpaw_data/setups/B.LDA.gz
    compensation charges: {type: gauss,
                           rc: 0.20,
                           lmax: 2}
    cutoffs: {filter: 1.14,
              core: 1.42}
    projectors:
      #              energy  rcut
      - 2s(2.00)    -9.383   0.635
      - 2p(1.00)    -3.714   0.635
      -  s          17.828   0.635
      -  p          23.498   0.635
      -  d           0.000   0.635
  
    # LCAO basis set for B:
    #   Name: dzp
    #   File: /home/mikei/.pyenv/versions/cemea-env/lib/python3.10/site-packages/gpaw_data/setups/B.dzp.basis.gz
    #   Number of radial functions: 5
    #   Number of spherical harmonics: 13
    #     l=0, rc=6.6719 Bohr: 2s-sz confined orbital
    #     l=1, rc=8.2188 Bohr: 2p-sz confined orbital
    #     l=0, rc=3.7500 Bohr: 2s-dz split-valence wave
    #     l=1, rc=4.6094 Bohr: 2p-dz split-valence wave
    #     l=2, rc=8.2188 Bohr: d-type Gaussian polarization
    #   Number of RI-basis functions 0

Reference energy: -1328189.127860  # eV

Spin-paired calculation

Convergence criteria:
 Maximum [total energy] change in last 3 cyles: 1e-05 eV / valence electron
 Maximum integral of absolute [dens]ity change: 0.0001 electrons / valence electron
 Maximum integral of absolute [eigenst]ate change: 1e-05 eV^2 / valence electron
 Maximum number of scf [iter]ations: 333
 (Square brackets indicate name in SCF output, whereas a 'c' in
 the SCF output indicates the quantity has converged.)

Symmetries present (total): 2

  ( 1  0  0)  ( 1  0  0)
  ( 0  1  0)  ( 0 -1  0)
  ( 0  0  1)  ( 0  0  1)

16 k-points: 4 x 4 x 1 Monkhorst-Pack grid
4 k-points in the irreducible part of the Brillouin zone
       k-points in crystal coordinates                weights
   0:     0.12500000    0.12500000    0.00000000          4/16
   1:     0.12500000    0.37500000    0.00000000          4/16
   2:     0.37500000    0.12500000    0.00000000          4/16
   3:     0.37500000    0.37500000    0.00000000          4/16

Wave functions: LCAO
  Diagonalizer: Serial LAPACK
  Atomic Correction: dense with blas
  Data-type: complex
 

Occupation numbers: Fermi-Dirac:
  width: 0.1000  # eV
 

Eigensolver
   LCAO using direct dense diagonalizer 

Densities:
  Coarse grid: 164*32*88 grid
  Fine grid: 328*64*176 grid
  Total Charge: 0.000000 

Density mixing:
  Method: separate
  Backend: pulay
  Linear mixing parameter: 0.05
  old densities: 5
  Damping of long wavelength oscillations: 50 

Hamiltonian:
  XC and Coulomb potentials evaluated on a 328*64*176 grid
  Using the LDA Exchange-Correlation functional
  Interpolation: tri-quintic (5. degree polynomial)
  Poisson solver: FastPoissonSolver using
    Stencil: 6*3+1=19 point O(h^6) finite-difference Laplacian
    FFT axes: [np.int64(0), np.int64(1), np.int64(2)]
    FST axes: []
 

Memory estimate:
  Process memory now: 4595.48 MiB
  Calculator: 465.61 MiB
    Density: 198.04 MiB
      Arrays: 91.61 MiB
      Localized functions: 71.20 MiB
      Mixer: 35.23 MiB
    Hamiltonian: 64.56 MiB
      Arrays: 59.90 MiB
      XC: 0.00 MiB
      Poisson: 0.00 MiB
      vbar: 4.66 MiB
    Wavefunctions: 203.01 MiB
      C [qnM]: 3.91 MiB
      S, T [2 x qmm]: 31.01 MiB
      P [aqMi]: 0.72 MiB
      BasisFunctions: 167.38 MiB
      Eigensolver: 0.00 MiB

Total number of cores used: 1

Number of atoms: 24
Number of atomic orbitals: 504
Number of bands in calculation: 127
Number of valence electrons: 204
Bands to converge: occupied

... initialized

Initializing position-dependent things.

Density initialized from atomic densities
     .--------------------------------------------------------------------------------.  
    /|                                                                                |  
   / |                                                                                |  
  /  |                                                                                |  
 *   |                                                                                |  
 |   |                                                                                |  
 |   |                                                                                |  
 |   |                                                                                |  
 |   |                                                                                |  
 |   |                                                                                |  
 |   |                                                                                |  
 |   |                      B      B       B      B       B      B                    |  
 |   |                                                                                |  
 |   |                    B      B       B      B       B      B                      |  
 |   |                 Mo     Mo      Mo     Mo      Mo     Mo                        |  
 |   |                                                                                |  
 |   |               Mo     Mo      Mo     Mo      Mo     Mo                          |  
 |   |                                                                                |  
 |   |                                                                                |  
 |   |                                                                                |  
 |   |                                                                                |  
 |   |                                                                                |  
 |   .--------------------------------------------------------------------------------.  
 |  /                                                                                /   
 | /                                                                                /    
 |/                                                                                /     
 *--------------------------------------------------------------------------------*      

Atomic positions and initial magnetic moments

Positions:
   0 Mo     8.000000    0.000000    8.000000    ( 0.0000,  0.0000,  0.0000)
   1 B      9.525000    1.525000    9.525000    ( 0.0000,  0.0000,  0.0000)
   2 Mo     8.000000    3.050000    8.000000    ( 0.0000,  0.0000,  0.0000)
   3 B      9.525000    4.575000    9.525000    ( 0.0000,  0.0000,  0.0000)
   4 Mo    11.050000    0.000000    8.000000    ( 0.0000,  0.0000,  0.0000)
   5 B     12.575000    1.525000    9.525000    ( 0.0000,  0.0000,  0.0000)
   6 Mo    11.050000    3.050000    8.000000    ( 0.0000,  0.0000,  0.0000)
   7 B     12.575000    4.575000    9.525000    ( 0.0000,  0.0000,  0.0000)
   8 Mo    14.100000    0.000000    8.000000    ( 0.0000,  0.0000,  0.0000)
   9 B     15.625000    1.525000    9.525000    ( 0.0000,  0.0000,  0.0000)
  10 Mo    14.100000    3.050000    8.000000    ( 0.0000,  0.0000,  0.0000)
  11 B     15.625000    4.575000    9.525000    ( 0.0000,  0.0000,  0.0000)
  12 Mo    17.150000    0.000000    8.000000    ( 0.0000,  0.0000,  0.0000)
  13 B     18.675000    1.525000    9.525000    ( 0.0000,  0.0000,  0.0000)
  14 Mo    17.150000    3.050000    8.000000    ( 0.0000,  0.0000,  0.0000)
  15 B     18.675000    4.575000    9.525000    ( 0.0000,  0.0000,  0.0000)
  16 Mo    20.200000    0.000000    8.000000    ( 0.0000,  0.0000,  0.0000)
  17 B     21.725000    1.525000    9.525000    ( 0.0000,  0.0000,  0.0000)
  18 Mo    20.200000    3.050000    8.000000    ( 0.0000,  0.0000,  0.0000)
  19 B     21.725000    4.575000    9.525000    ( 0.0000,  0.0000,  0.0000)
  20 Mo    23.250000    0.000000    8.000000    ( 0.0000,  0.0000,  0.0000)
  21 B     24.775000    1.525000    9.525000    ( 0.0000,  0.0000,  0.0000)
  22 Mo    23.250000    3.050000    8.000000    ( 0.0000,  0.0000,  0.0000)
  23 B     24.775000    4.575000    9.525000    ( 0.0000,  0.0000,  0.0000)

Unit cell:
           periodic     x           y           z      points  spacing
  1. axis:    yes   32.775000    0.000000    0.000000   164     0.1998
  2. axis:    yes    0.000000    6.100000    0.000000    32     0.1906
  3. axis:    yes    0.000000    0.000000   17.525000    88     0.1991

  Lengths:  32.775000   6.100000  17.525000
  Angles:   90.000000  90.000000  90.000000

Effective grid spacing dv^(1/3) = 0.1965

     iter     time        total  log10-change:
                         energy   eigst   dens
iter:   1 15:52:51  -166.320854        c
iter:   2 15:53:05  -174.779498        c -0.92
iter:   3 15:53:19  -169.489689        c -0.84
iter:   4 15:53:31  -155.371605        c -0.89
iter:   5 15:53:42  -153.361533        c -1.05
iter:   6 15:53:55  -152.987701        c -1.10
iter:   7 15:54:06  -148.436523        c -1.11
iter:   8 15:54:21  -146.819123        c -1.29
iter:   9 15:54:30  -147.853179        c -1.58
iter:  10 15:54:44  -146.567647        c -1.36
iter:  11 15:54:53  -146.245176        c -1.64
iter:  12 15:55:02  -146.535677        c -1.79
iter:  13 15:55:14  -146.143098        c -1.66
iter:  14 15:55:25  -146.158972        c -1.97
iter:  15 15:55:42  -146.661890        c -1.96
iter:  16 15:55:55  -146.123949        c -1.58
iter:  17 15:56:07  -146.094474        c -2.07
iter:  18 15:56:23  -146.136163        c -2.21
iter:  19 15:56:35  -146.082766        c -2.14
iter:  20 15:56:44  -146.072358        c -2.29
iter:  21 15:56:55  -146.066089        c -2.47
iter:  22 15:57:06  -146.079291        c -2.47
iter:  23 15:57:17  -146.062191        c -2.38
iter:  24 15:57:30  -146.066766        c -2.55
iter:  25 15:57:42  -146.058081        c -2.63
iter:  26 15:57:57  -146.058528        c -2.75
iter:  27 15:58:10  -146.056115        c -2.84
iter:  28 15:58:19  -146.064277        c -2.90
iter:  29 15:58:30  -146.055239        c -2.59
iter:  30 15:58:39  -146.056683        c -2.91
iter:  31 15:58:51  -146.053005        c -2.99
iter:  32 15:59:08  -146.054908        c -2.99
iter:  33 15:59:17  -146.053941c       c -3.06
iter:  34 15:59:25  -146.054885c       c -3.20
iter:  35 15:59:39  -146.054079c       c -3.25
iter:  36 15:59:53  -146.054995c       c -3.30
iter:  37 16:00:07  -146.053691c       c -3.37
iter:  38 16:00:18  -146.054746c       c -3.35
iter:  39 16:00:34  -146.054707c       c -3.41
iter:  40 16:00:43  -146.054955c       c -3.49
iter:  41 16:00:52  -146.054505c       c -3.54
iter:  42 16:01:04  -146.055150c       c -3.44
iter:  43 16:01:17  -146.054622c       c -3.61
iter:  44 16:01:26  -146.055235c       c -3.59
iter:  45 16:01:35  -146.054966c       c -3.63
iter:  46 16:01:46  -146.055175c       c -3.68
iter:  47 16:01:59  -146.054680c       c -3.72
iter:  48 16:02:10  -146.055064c       c -3.64
iter:  49 16:02:22  -146.054856c       c -3.70
iter:  50 16:02:38  -146.055098c       c -3.86
iter:  51 16:02:52  -146.054910c       c -3.87
iter:  52 16:03:01  -146.055038c       c -3.92
iter:  53 16:03:14  -146.054645c       c -3.96
iter:  54 16:03:25  -146.054947c       c -3.86
iter:  55 16:03:34  -146.054846c       c -4.01c

Converged after 55 iterations.

Dipole moment: (-0.554401, -11.583193, -0.488518) |e|*Ang

Energy contributions relative to reference atoms: (reference = -1328189.127860)

Kinetic:       -310.136027
Potential:     +208.032589
External:        +0.000000
XC:             -44.447395
Entropy (-ST):   -1.724337
Local:           +1.358155
SIC:             +0.000000
--------------------------
Free energy:   -146.917015
Extrapolated:  -146.054846

Showing only first 2 kpts
 Kpt  Band  Eigenvalues  Occupancy
  0   100     -3.50407    1.08620
  0   101     -3.47135    0.92297
  0   102     -3.36624    0.46101
  0   103     -3.31709    0.30974

  1   100     -3.63112    1.61796
  1   101     -3.57310    1.40664
  1   102     -3.53348    1.22933
  1   103     -3.46674    0.90010


Fermi level: -3.48678

No gap
No difference between direct/indirect transitions
Timing:                              incl.     excl.
-----------------------------------------------------------
Basic WFS set positions:             0.000     0.000   0.0% |
Basis functions set positions:       0.103     0.103   0.0% |
LCAO WFS Initialize:                 0.485     0.049   0.0% |
 Hamiltonian:                        0.436     0.000   0.0% |
  Atomic:                            0.088     0.001   0.0% |
   XC Correction:                    0.087     0.087   0.0% |
  Calculate atomic Hamiltonians:     0.009     0.009   0.0% |
  Communicate:                       0.000     0.000   0.0% |
  Hartree integrate/restrict:        0.017     0.017   0.0% |
  Initialize Hamiltonian:            0.002     0.002   0.0% |
  Poisson:                           0.209     0.015   0.0% |
   Communicate from 1D:              0.017     0.017   0.0% |
   Communicate from 2D:              0.016     0.016   0.0% |
   Communicate to 1D:                0.012     0.012   0.0% |
   Communicate to 2D:                0.016     0.016   0.0% |
   FFT 1D:                           0.025     0.025   0.0% |
   FFT 2D:                           0.108     0.108   0.0% |
  XC 3D grid:                        0.109     0.109   0.0% |
  vbar:                              0.002     0.002   0.0% |
P tci:                               0.266     0.266   0.0% |
SCF-cycle:                         649.160     0.041   0.0% |
 Density:                          320.836     0.001   0.0% |
  Atomic density matrices:           0.098     0.098   0.0% |
  Mix:                               6.552     6.552   1.0% |
  Multipole moments:                 0.008     0.008   0.0% |
  Normalize:                         0.007     0.007   0.0% |
  Pseudo density:                  314.171     0.034   0.0% |
   Calculate density matrix:         0.887     0.887   0.1% |
   Construct density:              312.697   312.697  48.0% |------------------|
   Symmetrize density:               0.553     0.553   0.1% |
 Hamiltonian:                       25.603     0.002   0.0% |
  Atomic:                            4.741     0.050   0.0% |
   XC Correction:                    4.691     4.691   0.7% |
  Calculate atomic Hamiltonians:     0.495     0.495   0.1% |
  Communicate:                       0.000     0.000   0.0% |
  Hartree integrate/restrict:        0.904     0.904   0.1% |
  Poisson:                          11.906     0.873   0.1% |
   Communicate from 1D:              0.938     0.938   0.1% |
   Communicate from 2D:              0.911     0.911   0.1% |
   Communicate to 1D:                0.681     0.681   0.1% |
   Communicate to 2D:                0.909     0.909   0.1% |
   FFT 1D:                           1.470     1.470   0.2% |
   FFT 2D:                           6.123     6.123   0.9% |
  XC 3D grid:                        6.876     6.876   1.1% |
  vbar:                              0.678     0.678   0.1% |
 LCAO eigensolver:                 302.679     0.096   0.0% |
  Calculate projections:            14.431    14.431   2.2% ||
  DenseAtomicCorrection:            16.796    16.796   2.6% ||
  Distribute overlap matrix:         0.119     0.119   0.0% |
  Orbital Layouts:                 185.349   185.349  28.4% |----------|
  Potential matrix:                 84.576    84.576  13.0% |----|
  Sum over cells:                    1.312     1.312   0.2% |
ST tci:                              0.141     0.141   0.0% |
Set symmetry:                        0.001     0.001   0.0% |
TCI: Evaluate splines:               0.125     0.125   0.0% |
mktci:                               0.003     0.003   0.0% |
Other:                               1.396     1.396   0.2% |
-----------------------------------------------------------
Total:                                       651.680 100.0%

Memory usage: 4.49 GiB
Date: Sat Feb 21 16:03:34 2026
