
  ___ ___ ___ _ _ _  
 |   |   |_  | | | | 
 | | | | | . | | | | 
 |__ |  _|___|_____|  25.7.0
 |___|_|             

User:   mikei@Z790-AORUS-ELITE-AX
Date:   Sat Feb 21 16:03:34 2026
Arch:   x86_64
Pid:    89048
CWD:    /home/mikei/Dokumenty/code/cemea/ocx
Python: 3.10.16
gpaw:   /home/mikei/.pyenv/versions/cemea-env/lib/python3.10/site-packages/gpaw
_gpaw:  /home/mikei/.pyenv/versions/cemea-env/lib/python3.10/site-packages/
        _gpaw.cpython-310-x86_64-linux-gnu.so
ase:    /home/mikei/.pyenv/versions/cemea-env/lib/python3.10/site-packages/ase (version 3.27.0)
numpy:  /home/mikei/.pyenv/versions/cemea-env/lib/python3.10/site-packages/numpy (version 2.2.6)
scipy:  /home/mikei/.pyenv/versions/cemea-env/lib/python3.10/site-packages/scipy (version 1.15.3)
libxc:  2.x.y
units:  Angstrom and eV
cores: 1
OpenMP: False
OMP_NUM_THREADS: 1

Input parameters:
  basis: dzp
  convergence: {density: 0.0001,
                eigenstates: 1e-05,
                energy: 1e-05}
  kpts: [4 4 1]
  mode: lcao

System changes: positions, numbers, cell, pbc, initial_charges, initial_magmoms 

Initialize ...

species:
  Mo:
    name: Molybdenum
    id: ac24daaf086600a00ce6d19a74574df1
    Z: 42.0
    valence: 14
    core: 28
    charge: 0.0
    file: /home/mikei/.pyenv/versions/cemea-env/lib/python3.10/site-packages/gpaw_data/setups/Mo.LDA.gz
    compensation charges: {type: gauss,
                           rc: 0.38,
                           lmax: 2}
    cutoffs: {filter: 2.16,
              core: 1.42}
    projectors:
      #              energy  rcut
      - 4s(2.00)   -64.384   1.238
      - 5s(1.00)    -4.319   1.238
      - 4p(6.00)   -38.595   1.296
      - 5p(0.00)    -1.161   1.296
      - 4d(5.00)    -3.933   1.296
      -  d          23.278   1.296
  
    # LCAO basis set for Mo:
    #   Name: dzp
    #   File: /home/mikei/.pyenv/versions/cemea-env/lib/python3.10/site-packages/gpaw_data/setups/Mo.dzp.basis.gz
    #   Number of radial functions: 11
    #   Number of spherical harmonics: 29
    #     l=0, rc=3.5469 Bohr: 4s-sz confined orbital
    #     l=0, rc=10.0469 Bohr: 5s-sz confined orbital
    #     l=1, rc=4.0781 Bohr: 4p-sz confined orbital
    #     l=1, rc=14.0938 Bohr: 5p-sz confined orbital
    #     l=2, rc=7.2031 Bohr: 4d-sz confined orbital
    #     l=0, rc=2.1250 Bohr: 4s-dz split-valence wave
    #     l=0, rc=6.1250 Bohr: 5s-dz split-valence wave
    #     l=1, rc=2.5469 Bohr: 4p-dz split-valence wave
    #     l=1, rc=8.7656 Bohr: 5p-dz split-valence wave
    #     l=2, rc=4.2344 Bohr: 4d-dz split-valence wave
    #     l=1, rc=10.0469 Bohr: p-type Gaussian polarization
    #   Number of RI-basis functions 0

  B:
    name: Boron
    id: 02e2e0e88ef95f403158802f6b0f4231
    Z: 5.0
    valence: 3
    core: 2
    charge: 0.0
    file: /home/mikei/.pyenv/versions/cemea-env/lib/python3.10/site-packages/gpaw_data/setups/B.LDA.gz
    compensation charges: {type: gauss,
                           rc: 0.20,
                           lmax: 2}
    cutoffs: {filter: 1.14,
              core: 1.42}
    projectors:
      #              energy  rcut
      - 2s(2.00)    -9.383   0.635
      - 2p(1.00)    -3.714   0.635
      -  s          17.828   0.635
      -  p          23.498   0.635
      -  d           0.000   0.635
  
    # LCAO basis set for B:
    #   Name: dzp
    #   File: /home/mikei/.pyenv/versions/cemea-env/lib/python3.10/site-packages/gpaw_data/setups/B.dzp.basis.gz
    #   Number of radial functions: 5
    #   Number of spherical harmonics: 13
    #     l=0, rc=6.6719 Bohr: 2s-sz confined orbital
    #     l=1, rc=8.2188 Bohr: 2p-sz confined orbital
    #     l=0, rc=3.7500 Bohr: 2s-dz split-valence wave
    #     l=1, rc=4.6094 Bohr: 2p-dz split-valence wave
    #     l=2, rc=8.2188 Bohr: d-type Gaussian polarization
    #   Number of RI-basis functions 0

  H:
    name: Hydrogen
    id: 4766778ce56282eaa64abeb28b7c1de3
    Z: 1.0
    valence: 1
    core: 0
    charge: 0.0
    file: /home/mikei/.pyenv/versions/cemea-env/lib/python3.10/site-packages/gpaw_data/setups/H.LDA.gz
    compensation charges: {type: gauss,
                           rc: 0.15,
                           lmax: 2}
    cutoffs: {filter: 0.85,
              core: 0.53}
    projectors:
      #              energy  rcut
      - 1s(1.00)    -6.353   0.476
      -  s          20.858   0.476
      -  p           0.000   0.476
  
    # LCAO basis set for H:
    #   Name: dzp
    #   File: /home/mikei/.pyenv/versions/cemea-env/lib/python3.10/site-packages/gpaw_data/setups/H.dzp.basis.gz
    #   Number of radial functions: 3
    #   Number of spherical harmonics: 5
    #     l=0, rc=6.4219 Bohr: 1s-sz confined orbital
    #     l=0, rc=3.6094 Bohr: 1s-dz split-valence wave
    #     l=1, rc=6.4219 Bohr: p-type Gaussian polarization
    #   Number of RI-basis functions 0

Reference energy: -1328201.256818  # eV

Spin-paired calculation

Convergence criteria:
 Maximum [total energy] change in last 3 cyles: 1e-05 eV / valence electron
 Maximum integral of absolute [dens]ity change: 0.0001 electrons / valence electron
 Maximum integral of absolute [eigenst]ate change: 1e-05 eV^2 / valence electron
 Maximum number of scf [iter]ations: 333
 (Square brackets indicate name in SCF output, whereas a 'c' in
 the SCF output indicates the quantity has converged.)

Symmetries present (total): 1

  ( 1  0  0)
  ( 0  1  0)
  ( 0  0  1)

16 k-points: 4 x 4 x 1 Monkhorst-Pack grid
8 k-points in the irreducible part of the Brillouin zone
       k-points in crystal coordinates                weights
   0:     0.12500000   -0.37500000    0.00000000          2/16
   1:     0.12500000   -0.12500000    0.00000000          2/16
   2:     0.12500000    0.12500000    0.00000000          2/16
   3:     0.12500000    0.37500000    0.00000000          2/16
   4:     0.37500000   -0.37500000    0.00000000          2/16
   5:     0.37500000   -0.12500000    0.00000000          2/16
   6:     0.37500000    0.12500000    0.00000000          2/16
   7:     0.37500000    0.37500000    0.00000000          2/16

Wave functions: LCAO
  Diagonalizer: Serial LAPACK
  Atomic Correction: dense with blas
  Data-type: complex
 

Occupation numbers: Fermi-Dirac:
  width: 0.1000  # eV
 

Eigensolver
   LCAO using direct dense diagonalizer 

Densities:
  Coarse grid: 164*32*88 grid
  Fine grid: 328*64*176 grid
  Total Charge: 0.000000 

Density mixing:
  Method: separate
  Backend: pulay
  Linear mixing parameter: 0.05
  old densities: 5
  Damping of long wavelength oscillations: 50 

Hamiltonian:
  XC and Coulomb potentials evaluated on a 328*64*176 grid
  Using the LDA Exchange-Correlation functional
  Interpolation: tri-quintic (5. degree polynomial)
  Poisson solver: FastPoissonSolver using
    Stencil: 6*3+1=19 point O(h^6) finite-difference Laplacian
    FFT axes: [np.int64(0), np.int64(1), np.int64(2)]
    FST axes: []
 

Memory estimate:
  Process memory now: 4595.48 MiB
  Calculator: 503.56 MiB
    Density: 198.30 MiB
      Arrays: 91.61 MiB
      Localized functions: 71.46 MiB
      Mixer: 35.23 MiB
    Hamiltonian: 64.58 MiB
      Arrays: 59.90 MiB
      XC: 0.00 MiB
      Poisson: 0.00 MiB
      vbar: 4.68 MiB
    Wavefunctions: 240.68 MiB
      C [qnM]: 7.89 MiB
      S, T [2 x qmm]: 63.25 MiB
      P [aqMi]: 1.46 MiB
      BasisFunctions: 168.07 MiB
      Eigensolver: 0.00 MiB

Total number of cores used: 1

Number of atoms: 25
Number of atomic orbitals: 509
Number of bands in calculation: 127
Number of valence electrons: 205
Bands to converge: occupied

... initialized

Initializing position-dependent things.

Density initialized from atomic densities
     .--------------------------------------------------------------------------------.  
    /|                                                                                |  
   / |                                                                                |  
  /  |                                                                                |  
 *   |                                                                                |  
 |   |                                                                                |  
 |   |                                                                                |  
 |   |                                                                                |  
 |   |                                                                                |  
 |   |                                                                                |  
 |   |                                                                                |  
 |   |                      B      B       H      B       B      B                    |  
 |   |                                                                                |  
 |   |                    B      B       B      B       B      B                      |  
 |   |                 Mo     Mo      Mo     Mo      Mo     Mo                        |  
 |   |                                                                                |  
 |   |               Mo     Mo      Mo     Mo      Mo     Mo                          |  
 |   |                                                                                |  
 |   |                                                                                |  
 |   |                                                                                |  
 |   |                                                                                |  
 |   |                                                                                |  
 |   .--------------------------------------------------------------------------------.  
 |  /                                                                                /   
 | /                                                                                /    
 |/                                                                                /     
 *--------------------------------------------------------------------------------*      

Atomic positions and initial magnetic moments

Positions:
   0 Mo     8.000000    0.000000    8.000000    ( 0.0000,  0.0000,  0.0000)
   1 B      9.525000    1.525000    9.525000    ( 0.0000,  0.0000,  0.0000)
   2 Mo     8.000000    3.050000    8.000000    ( 0.0000,  0.0000,  0.0000)
   3 B      9.525000    4.575000    9.525000    ( 0.0000,  0.0000,  0.0000)
   4 Mo    11.050000    0.000000    8.000000    ( 0.0000,  0.0000,  0.0000)
   5 B     12.575000    1.525000    9.525000    ( 0.0000,  0.0000,  0.0000)
   6 Mo    11.050000    3.050000    8.000000    ( 0.0000,  0.0000,  0.0000)
   7 B     12.575000    4.575000    9.525000    ( 0.0000,  0.0000,  0.0000)
   8 Mo    14.100000    0.000000    8.000000    ( 0.0000,  0.0000,  0.0000)
   9 B     15.625000    1.525000    9.525000    ( 0.0000,  0.0000,  0.0000)
  10 Mo    14.100000    3.050000    8.000000    ( 0.0000,  0.0000,  0.0000)
  11 B     15.625000    4.575000    9.525000    ( 0.0000,  0.0000,  0.0000)
  12 Mo    17.150000    0.000000    8.000000    ( 0.0000,  0.0000,  0.0000)
  13 B     18.675000    1.525000    9.525000    ( 0.0000,  0.0000,  0.0000)
  14 Mo    17.150000    3.050000    8.000000    ( 0.0000,  0.0000,  0.0000)
  15 B     18.675000    4.575000    9.525000    ( 0.0000,  0.0000,  0.0000)
  16 Mo    20.200000    0.000000    8.000000    ( 0.0000,  0.0000,  0.0000)
  17 B     21.725000    1.525000    9.525000    ( 0.0000,  0.0000,  0.0000)
  18 Mo    20.200000    3.050000    8.000000    ( 0.0000,  0.0000,  0.0000)
  19 B     21.725000    4.575000    9.525000    ( 0.0000,  0.0000,  0.0000)
  20 Mo    23.250000    0.000000    8.000000    ( 0.0000,  0.0000,  0.0000)
  21 B     24.775000    1.525000    9.525000    ( 0.0000,  0.0000,  0.0000)
  22 Mo    23.250000    3.050000    8.000000    ( 0.0000,  0.0000,  0.0000)
  23 B     24.775000    4.575000    9.525000    ( 0.0000,  0.0000,  0.0000)
  24 H     16.387500    2.287500   11.025000    ( 0.0000,  0.0000,  0.0000)

Unit cell:
           periodic     x           y           z      points  spacing
  1. axis:    yes   32.775000    0.000000    0.000000   164     0.1998
  2. axis:    yes    0.000000    6.100000    0.000000    32     0.1906
  3. axis:    yes    0.000000    0.000000   17.525000    88     0.1991

  Lengths:  32.775000   6.100000  17.525000
  Angles:   90.000000  90.000000  90.000000

Effective grid spacing dv^(1/3) = 0.1965

     iter     time        total  log10-change:
                         energy   eigst   dens
iter:   1 16:03:48  -169.322712        c
iter:   2 16:04:10  -177.708269        c -0.92
iter:   3 16:04:30  -171.571785        c -0.84
iter:   4 16:04:50  -157.765840        c -0.90
iter:   5 16:05:12  -156.249283        c -1.06
iter:   6 16:05:37  -156.029570        c -1.10
iter:   7 16:06:02  -151.021885        c -1.10
iter:   8 16:06:24  -149.754728        c -1.31
iter:   9 16:06:43  -150.966938        c -1.57
iter:  10 16:07:02  -149.525163        c -1.34
iter:  11 16:07:27  -149.389285        c -1.63
iter:  12 16:07:48  -149.626885        c -1.67
iter:  13 16:08:08  -149.150977        c -1.63
iter:  14 16:08:26  -149.114769        c -1.86
iter:  15 16:08:46  -149.062942        c -1.95
iter:  16 16:09:07  -149.198875        c -2.09
iter:  17 16:09:31  -149.045575        c -1.84
iter:  18 16:09:50  -149.045254        c -2.14
iter:  19 16:10:18  -149.024568        c -2.20
iter:  20 16:10:35  -149.038189        c -2.28
iter:  21 16:10:59  -149.009761        c -2.28
iter:  22 16:11:25  -149.020447        c -2.36
iter:  23 16:11:45  -149.010543        c -2.38
iter:  24 16:12:06  -148.999952        c -2.44
iter:  25 16:12:25  -149.003815        c -2.61
iter:  26 16:12:45  -148.997900        c -2.66
iter:  27 16:13:10  -148.996670        c -2.82
iter:  28 16:13:30  -148.999428        c -2.91
iter:  29 16:13:54  -148.998011        c -2.92
iter:  30 16:14:13  -148.994153        c -2.72
iter:  31 16:14:34  -148.997579        c -2.90
iter:  32 16:14:53  -148.996332        c -3.08
iter:  33 16:15:17  -148.996233c       c -3.22
iter:  34 16:15:41  -148.996442c       c -3.36
iter:  35 16:16:01  -148.996898c       c -3.49
iter:  36 16:16:22  -148.995750c       c -3.53
iter:  37 16:16:45  -148.996039c       c -3.37
iter:  38 16:17:11  -148.996647c       c -3.68
iter:  39 16:17:32  -148.996339c       c -3.79
iter:  40 16:17:54  -148.996666c       c -3.91
iter:  41 16:18:16  -148.996283c       c -3.81
iter:  42 16:18:33  -148.996653c       c -3.88
iter:  43 16:19:00  -148.996361c       c -3.98
iter:  44 16:19:26  -148.996421c       c -4.01c

Converged after 44 iterations.

Dipole moment: (-0.546861, -11.479006, -0.554146) |e|*Ang

Energy contributions relative to reference atoms: (reference = -1328201.256818)

Kinetic:       -311.216713
Potential:     +207.750941
External:        +0.000000
XC:             -46.020856
Entropy (-ST):   -1.705890
Local:           +1.343151
SIC:             +0.000000
--------------------------
Free energy:   -149.849367
Extrapolated:  -148.996421

Showing only first 2 kpts
 Kpt  Band  Eigenvalues  Occupancy
  0   100     -3.66126    1.65957
  0   101     -3.63127    1.56634
  0   102     -3.56369    1.29517
  0   103     -3.52433    1.10697

  1   100     -3.52413    1.10602
  1   101     -3.48588    0.91535
  1   102     -3.44950    0.73942
  1   103     -3.36301    0.39613


Fermi level: -3.50285

No gap
No difference between direct/indirect transitions
Timing:                              incl.     excl.
-----------------------------------------------------------
Basic WFS set positions:             0.000     0.000   0.0% |
Basis functions set positions:       0.103     0.103   0.0% |
LCAO WFS Initialize:                 0.519     0.050   0.0% |
 Hamiltonian:                        0.468     0.000   0.0% |
  Atomic:                            0.089     0.001   0.0% |
   XC Correction:                    0.088     0.088   0.0% |
  Calculate atomic Hamiltonians:     0.009     0.009   0.0% |
  Communicate:                       0.000     0.000   0.0% |
  Hartree integrate/restrict:        0.017     0.017   0.0% |
  Initialize Hamiltonian:            0.002     0.002   0.0% |
  Poisson:                           0.239     0.016   0.0% |
   Communicate from 1D:              0.024     0.024   0.0% |
   Communicate from 2D:              0.018     0.018   0.0% |
   Communicate to 1D:                0.013     0.013   0.0% |
   Communicate to 2D:                0.018     0.018   0.0% |
   FFT 1D:                           0.029     0.029   0.0% |
   FFT 2D:                           0.120     0.120   0.0% |
  XC 3D grid:                        0.110     0.110   0.0% |
  vbar:                              0.002     0.002   0.0% |
P tci:                               0.519     0.519   0.1% |
SCF-cycle:                         948.976     0.077   0.0% |
 Density:                          510.904     0.001   0.0% |
  Atomic density matrices:           0.137     0.137   0.0% |
  Mix:                               5.225     5.225   0.5% |
  Multipole moments:                 0.007     0.007   0.0% |
  Normalize:                         0.013     0.013   0.0% |
  Pseudo density:                  505.523     0.038   0.0% |
   Calculate density matrix:         1.058     1.058   0.1% |
   Construct density:              504.426   504.426  53.0% |--------------------|
   Symmetrize density:               0.001     0.001   0.0% |
 Hamiltonian:                       20.411     0.002   0.0% |
  Atomic:                            3.909     0.041   0.0% |
   XC Correction:                    3.868     3.868   0.4% |
  Calculate atomic Hamiltonians:     0.398     0.398   0.0% |
  Communicate:                       0.000     0.000   0.0% |
  Hartree integrate/restrict:        0.736     0.736   0.1% |
  Poisson:                           9.402     0.683   0.1% |
   Communicate from 1D:              0.981     0.981   0.1% |
   Communicate from 2D:              0.765     0.765   0.1% |
   Communicate to 1D:                0.546     0.546   0.1% |
   Communicate to 2D:                0.731     0.731   0.1% |
   FFT 1D:                           1.184     1.184   0.1% |
   FFT 2D:                           4.512     4.512   0.5% |
  XC 3D grid:                        5.397     5.397   0.6% |
  vbar:                              0.568     0.568   0.1% |
 LCAO eigensolver:                 417.583     0.173   0.0% |
  Calculate projections:            23.710    23.710   2.5% ||
  DenseAtomicCorrection:            37.734    37.734   4.0% |-|
  Distribute overlap matrix:         0.172     0.172   0.0% |
  Orbital Layouts:                 284.715   284.715  29.9% |-----------|
  Potential matrix:                 68.685    68.685   7.2% |--|
  Sum over cells:                    2.394     2.394   0.3% |
ST tci:                              0.164     0.164   0.0% |
Set symmetry:                        0.000     0.000   0.0% |
TCI: Evaluate splines:               0.165     0.165   0.0% |
mktci:                               0.003     0.003   0.0% |
Other:                               1.545     1.545   0.2% |
-----------------------------------------------------------
Total:                                       951.995 100.0%

Memory usage: 4.49 GiB
Date: Sat Feb 21 16:19:26 2026
