
  ___ ___ ___ _ _ _  
 |   |   |_  | | | | 
 | | | | | . | | | | 
 |__ |  _|___|_____|  25.7.0
 |___|_|             

User:   mikei@Z790-AORUS-ELITE-AX
Date:   Sun Feb 22 08:58:39 2026
Arch:   x86_64
Pid:    89048
CWD:    /home/mikei/Dokumenty/code/cemea/ocx
Python: 3.10.16
gpaw:   /home/mikei/.pyenv/versions/cemea-env/lib/python3.10/site-packages/gpaw
_gpaw:  /home/mikei/.pyenv/versions/cemea-env/lib/python3.10/site-packages/
        _gpaw.cpython-310-x86_64-linux-gnu.so
ase:    /home/mikei/.pyenv/versions/cemea-env/lib/python3.10/site-packages/ase (version 3.27.0)
numpy:  /home/mikei/.pyenv/versions/cemea-env/lib/python3.10/site-packages/numpy (version 2.2.6)
scipy:  /home/mikei/.pyenv/versions/cemea-env/lib/python3.10/site-packages/scipy (version 1.15.3)
libxc:  2.x.y
units:  Angstrom and eV
cores: 1
OpenMP: False
OMP_NUM_THREADS: 1

Input parameters:
  basis: dzp
  convergence: {density: 0.0001,
                eigenstates: 1e-05,
                energy: 1e-05}
  kpts: [4 4 1]
  mode: lcao

System changes: positions, numbers, cell, pbc, initial_charges, initial_magmoms 

Initialize ...

species:
  Ni:
    name: Nickel
    id: 1802175e8de9ea26d9f4394ec1a7d564
    Z: 28.0
    valence: 16
    core: 12
    charge: 0.0
    file: /home/mikei/.pyenv/versions/cemea-env/lib/python3.10/site-packages/gpaw_data/setups/Ni.LDA.gz
    compensation charges: {type: gauss,
                           rc: 0.36,
                           lmax: 2}
    cutoffs: {filter: 2.14,
              core: 1.98}
    projectors:
      #              energy  rcut
      - 4s(2.00)    -5.858   1.164
      - 3p(6.00)   -71.266   1.207
      - 4p(0.00)    -1.338   1.207
      - 3d(8.00)    -9.141   1.138
      -  s          21.353   1.164
      -  d          18.071   1.138
  
    # LCAO basis set for Ni:
    #   Name: dzp
    #   File: /home/mikei/.pyenv/versions/cemea-env/lib/python3.10/site-packages/gpaw_data/setups/Ni.dzp.basis.gz
    #   Number of radial functions: 9
    #   Number of spherical harmonics: 27
    #     l=0, rc=8.5156 Bohr: 4s-sz confined orbital
    #     l=1, rc=2.9375 Bohr: 3p-sz confined orbital
    #     l=1, rc=12.4062 Bohr: 4p-sz confined orbital
    #     l=2, rc=4.6875 Bohr: 3d-sz confined orbital
    #     l=0, rc=4.9688 Bohr: 4s-dz split-valence wave
    #     l=1, rc=2.0781 Bohr: 3p-dz split-valence wave
    #     l=1, rc=7.5469 Bohr: 4p-dz split-valence wave
    #     l=2, rc=2.9375 Bohr: 3d-dz split-valence wave
    #     l=1, rc=8.5156 Bohr: p-type Gaussian polarization
    #   Number of RI-basis functions 0

  Mo:
    name: Molybdenum
    id: ac24daaf086600a00ce6d19a74574df1
    Z: 42.0
    valence: 14
    core: 28
    charge: 0.0
    file: /home/mikei/.pyenv/versions/cemea-env/lib/python3.10/site-packages/gpaw_data/setups/Mo.LDA.gz
    compensation charges: {type: gauss,
                           rc: 0.38,
                           lmax: 2}
    cutoffs: {filter: 2.16,
              core: 1.42}
    projectors:
      #              energy  rcut
      - 4s(2.00)   -64.384   1.238
      - 5s(1.00)    -4.319   1.238
      - 4p(6.00)   -38.595   1.296
      - 5p(0.00)    -1.161   1.296
      - 4d(5.00)    -3.933   1.296
      -  d          23.278   1.296
  
    # LCAO basis set for Mo:
    #   Name: dzp
    #   File: /home/mikei/.pyenv/versions/cemea-env/lib/python3.10/site-packages/gpaw_data/setups/Mo.dzp.basis.gz
    #   Number of radial functions: 11
    #   Number of spherical harmonics: 29
    #     l=0, rc=3.5469 Bohr: 4s-sz confined orbital
    #     l=0, rc=10.0469 Bohr: 5s-sz confined orbital
    #     l=1, rc=4.0781 Bohr: 4p-sz confined orbital
    #     l=1, rc=14.0938 Bohr: 5p-sz confined orbital
    #     l=2, rc=7.2031 Bohr: 4d-sz confined orbital
    #     l=0, rc=2.1250 Bohr: 4s-dz split-valence wave
    #     l=0, rc=6.1250 Bohr: 5s-dz split-valence wave
    #     l=1, rc=2.5469 Bohr: 4p-dz split-valence wave
    #     l=1, rc=8.7656 Bohr: 5p-dz split-valence wave
    #     l=2, rc=4.2344 Bohr: 4d-dz split-valence wave
    #     l=1, rc=10.0469 Bohr: p-type Gaussian polarization
    #   Number of RI-basis functions 0

  C:
    name: Carbon
    id: d60576a1f549371a163e72552ca58787
    Z: 6.0
    valence: 4
    core: 2
    charge: 0.0
    file: /home/mikei/.pyenv/versions/cemea-env/lib/python3.10/site-packages/gpaw_data/setups/C.LDA.gz
    compensation charges: {type: gauss,
                           rc: 0.20,
                           lmax: 2}
    cutoffs: {filter: 1.14,
              core: 1.14}
    projectors:
      #              energy  rcut
      - 2s(2.00)   -13.639   0.635
      - 2p(2.00)    -5.414   0.635
      -  s          13.573   0.635
      -  p          21.797   0.635
      -  d           0.000   0.635
  
    # LCAO basis set for C:
    #   Name: dzp
    #   File: /home/mikei/.pyenv/versions/cemea-env/lib/python3.10/site-packages/gpaw_data/setups/C.dzp.basis.gz
    #   Number of radial functions: 5
    #   Number of spherical harmonics: 13
    #     l=0, rc=5.5469 Bohr: 2s-sz confined orbital
    #     l=1, rc=6.6719 Bohr: 2p-sz confined orbital
    #     l=0, rc=3.0312 Bohr: 2s-dz split-valence wave
    #     l=1, rc=3.7500 Bohr: 2p-dz split-valence wave
    #     l=2, rc=6.6719 Bohr: d-type Gaussian polarization
    #   Number of RI-basis functions 0

Reference energy: -2453656.357507  # eV

Spin-paired calculation

Convergence criteria:
 Maximum [total energy] change in last 3 cyles: 1e-05 eV / valence electron
 Maximum integral of absolute [dens]ity change: 0.0001 electrons / valence electron
 Maximum integral of absolute [eigenst]ate change: 1e-05 eV^2 / valence electron
 Maximum number of scf [iter]ations: 333
 (Square brackets indicate name in SCF output, whereas a 'c' in
 the SCF output indicates the quantity has converged.)

Symmetries present (total): 1

  ( 1  0  0)
  ( 0  1  0)
  ( 0  0  1)

16 k-points: 4 x 4 x 1 Monkhorst-Pack grid
8 k-points in the irreducible part of the Brillouin zone
       k-points in crystal coordinates                weights
   0:     0.12500000   -0.37500000    0.00000000          2/16
   1:     0.12500000   -0.12500000    0.00000000          2/16
   2:     0.12500000    0.12500000    0.00000000          2/16
   3:     0.12500000    0.37500000    0.00000000          2/16
   4:     0.37500000   -0.37500000    0.00000000          2/16
   5:     0.37500000   -0.12500000    0.00000000          2/16
   6:     0.37500000    0.12500000    0.00000000          2/16
   7:     0.37500000    0.37500000    0.00000000          2/16

Wave functions: LCAO
  Diagonalizer: Serial LAPACK
  Atomic Correction: dense with blas
  Data-type: complex
 

Occupation numbers: Fermi-Dirac:
  width: 0.1000  # eV
 

Eigensolver
   LCAO using direct dense diagonalizer 

Densities:
  Coarse grid: 36*36*128 grid
  Fine grid: 72*72*256 grid
  Total Charge: 0.000000 

Density mixing:
  Method: separate
  Backend: pulay
  Linear mixing parameter: 0.05
  old densities: 5
  Damping of long wavelength oscillations: 50 

Hamiltonian:
  XC and Coulomb potentials evaluated on a 72*72*256 grid
  Using the LDA Exchange-Correlation functional
  Interpolation: tri-quintic (5. degree polynomial)
  Poisson solver: FastPoissonSolver using
    Stencil: 6*3+1=19 point O(h^6) finite-difference Laplacian
    FFT axes: [np.int64(0), np.int64(1), np.int64(2)]
    FST axes: []
 

Memory estimate:
  Process memory now: 4595.48 MiB
  Calculator: 1063.02 MiB
    Density: 229.46 MiB
      Arrays: 32.91 MiB
      Localized functions: 183.90 MiB
      Mixer: 12.66 MiB
    Hamiltonian: 35.18 MiB
      Arrays: 21.52 MiB
      XC: 0.00 MiB
      Poisson: 0.00 MiB
      vbar: 13.66 MiB
    Wavefunctions: 798.38 MiB
      C [qnM]: 71.32 MiB
      S, T [2 x qmm]: 418.97 MiB
      P [aqMi]: 8.80 MiB
      BasisFunctions: 299.29 MiB
      Eigensolver: 0.00 MiB

Total number of cores used: 1

Number of atoms: 50
Number of atomic orbitals: 1310
Number of bands in calculation: 446
Number of valence electrons: 736
Bands to converge: occupied

... initialized

Initializing position-dependent things.

Density initialized from atomic densities
      .-----------------.  
     /|                 |  
    / |                 |  
   /  |                 |  
  /   |                 |  
 *    |                 |  
 |    |                 |  
 |    |                 |  
 |    |                 |  
 |    |                 |  
 |    | Ni    Ni        |  
 |    |   Mo        Mo  |  
 |    |                 |  
 |    |Mo C      Mo C   |  
 |  Mo|       Mo        |  
 |    |                 |  
 |    |C         C      |  
 Mo Ni|   NMo   Ni      |  
 | Ni | NNi   NNi   Ni  |  
 |    |                 |  
 Ni   NNi   NNi   Ni    |  
 |  NNi   NNi   NNi     |  
 | Ni | NNi   NNi   Ni  |  
 |    |                 |  
 Ni   NNi   NNi   Ni    |  
 |   Ni    Ni    Ni     |  
 |    |                 |  
 |    |                 |  
 |    |                 |  
 |    |                 |  
 |    |                 |  
 |    .-----------------.  
 |   /                 /   
 |  /                 /    
 | /                 /     
 |/                 /      
 *-----------------*       

Atomic positions and initial magnetic moments

Positions:
   0 Ni     1.244508    1.244508    8.000000    ( 0.0000,  0.0000,  0.0000)
   1 Ni     3.733524    1.244508    8.000000    ( 0.0000,  0.0000,  0.0000)
   2 Ni     6.222540    1.244508    8.000000    ( 0.0000,  0.0000,  0.0000)
   3 Ni     1.244508    3.733524    8.000000    ( 0.0000,  0.0000,  0.0000)
   4 Ni     3.733524    3.733524    8.000000    ( 0.0000,  0.0000,  0.0000)
   5 Ni     6.222540    3.733524    8.000000    ( 0.0000,  0.0000,  0.0000)
   6 Ni     1.244508    6.222540    8.000000    ( 0.0000,  0.0000,  0.0000)
   7 Ni     3.733524    6.222540    8.000000    ( 0.0000,  0.0000,  0.0000)
   8 Ni     6.222540    6.222540    8.000000    ( 0.0000,  0.0000,  0.0000)
   9 Ni     0.000000    0.000000    9.760000    ( 0.0000,  0.0000,  0.0000)
  10 Ni     2.489016    0.000000    9.760000    ( 0.0000,  0.0000,  0.0000)
  11 Ni     4.978032    0.000000    9.760000    ( 0.0000,  0.0000,  0.0000)
  12 Ni     0.000000    2.489016    9.760000    ( 0.0000,  0.0000,  0.0000)
  13 Ni     2.489016    2.489016    9.760000    ( 0.0000,  0.0000,  0.0000)
  14 Ni     4.978032    2.489016    9.760000    ( 0.0000,  0.0000,  0.0000)
  15 Ni     0.000000    4.978032    9.760000    ( 0.0000,  0.0000,  0.0000)
  16 Ni     2.489016    4.978032    9.760000    ( 0.0000,  0.0000,  0.0000)
  17 Ni     4.978032    4.978032    9.760000    ( 0.0000,  0.0000,  0.0000)
  18 Ni     1.244508    1.244508   11.520000    ( 0.0000,  0.0000,  0.0000)
  19 Ni     3.733524    1.244508   11.520000    ( 0.0000,  0.0000,  0.0000)
  20 Ni     6.222540    1.244508   11.520000    ( 0.0000,  0.0000,  0.0000)
  21 Ni     1.244508    3.733524   11.520000    ( 0.0000,  0.0000,  0.0000)
  22 Ni     3.733524    3.733524   11.520000    ( 0.0000,  0.0000,  0.0000)
  23 Ni     6.222540    3.733524   11.520000    ( 0.0000,  0.0000,  0.0000)
  24 Ni     1.244508    6.222540   11.520000    ( 0.0000,  0.0000,  0.0000)
  25 Ni     3.733524    6.222540   11.520000    ( 0.0000,  0.0000,  0.0000)
  26 Ni     6.222540    6.222540   11.520000    ( 0.0000,  0.0000,  0.0000)
  27 Ni     0.000000    0.000000   13.280000    ( 0.0000,  0.0000,  0.0000)
  28 Ni     2.489016    0.000000   13.280000    ( 0.0000,  0.0000,  0.0000)
  29 Ni     4.978032    0.000000   13.280000    ( 0.0000,  0.0000,  0.0000)
  30 Ni     0.000000    2.489016   13.280000    ( 0.0000,  0.0000,  0.0000)
  31 Ni     2.489016    2.489016   13.280000    ( 0.0000,  0.0000,  0.0000)
  32 Ni     4.978032    2.489016   13.280000    ( 0.0000,  0.0000,  0.0000)
  33 Ni     0.000000    4.978032   13.280000    ( 0.0000,  0.0000,  0.0000)
  34 Ni     2.489016    4.978032   13.280000    ( 0.0000,  0.0000,  0.0000)
  35 Ni     4.978032    4.978032   13.280000    ( 0.0000,  0.0000,  0.0000)
  36 Mo     0.000000    0.000000   15.480000    ( 0.0000,  0.0000,  0.0000)
  37 Mo     2.060000    2.060000   17.540000    ( 0.0000,  0.0000,  0.0000)
  38 C      2.060000    2.060000   15.480000    ( 0.0000,  0.0000,  0.0000)
  39 Mo     0.000000    4.120000   15.480000    ( 0.0000,  0.0000,  0.0000)
  40 Mo     2.060000    6.180000   17.540000    ( 0.0000,  0.0000,  0.0000)
  41 C      2.060000    6.180000   15.480000    ( 0.0000,  0.0000,  0.0000)
  42 Mo     4.120000    0.000000   15.480000    ( 0.0000,  0.0000,  0.0000)
  43 Mo     6.180000    2.060000   17.540000    ( 0.0000,  0.0000,  0.0000)
  44 C      6.180000    2.060000   15.480000    ( 0.0000,  0.0000,  0.0000)
  45 Mo     4.120000    4.120000   15.480000    ( 0.0000,  0.0000,  0.0000)
  46 Mo     6.180000    6.180000   17.540000    ( 0.0000,  0.0000,  0.0000)
  47 C      6.180000    6.180000   15.480000    ( 0.0000,  0.0000,  0.0000)
  48 Ni     1.991786    3.191786   19.340000    ( 0.0000,  0.0000,  0.0000)
  49 Ni     4.391786    3.191786   19.340000    ( 0.0000,  0.0000,  0.0000)

Unit cell:
           periodic     x           y           z      points  spacing
  1. axis:    yes    7.467048    0.000000    0.000000    36     0.2074
  2. axis:    yes    0.000000    7.467048    0.000000    36     0.2074
  3. axis:    yes    0.000000    0.000000   25.540000   128     0.1995

  Lengths:   7.467048   7.467048  25.540000
  Angles:   90.000000  90.000000  90.000000

Effective grid spacing dv^(1/3) = 0.2048

     iter     time        total  log10-change:
                         energy   eigst   dens
iter:   1 08:59:15 -1041.930993        c
iter:   2 09:00:46 -4244.733364        c -0.93
iter:   3 09:02:17  -626.668823        c -0.42
iter:   4 09:03:47  -480.151322        c -1.22
iter:   5 09:05:18  -444.913362        c -1.37
iter:   6 09:06:49  -457.568375        c -1.48
iter:   7 09:08:20  -485.057790        c -1.36
iter:   8 09:09:53  -497.359540        c -1.41
iter:   9 09:11:23  -493.920229        c -1.35
iter:  10 09:12:54  -455.988289        c -1.39
iter:  11 09:14:24  -437.967076        c -1.52
iter:  12 09:15:55  -466.634948        c -1.56
iter:  13 09:17:27  -450.927333        c -1.26
iter:  14 09:18:57  -414.339753        c -1.49
iter:  15 09:20:28  -401.673886        c -1.68
iter:  16 09:21:59  -397.430428        c -1.73
iter:  17 09:23:30  -389.812575        c -1.78
iter:  18 09:25:01  -391.759889        c -1.82
iter:  19 09:26:32  -397.820058        c -1.87
iter:  20 09:28:03  -389.734987        c -1.76
iter:  21 09:29:40  -394.812288        c -2.03
iter:  22 09:31:15  -391.188225        c -1.76
iter:  23 09:32:46  -401.726012        c -1.93
iter:  24 09:34:19  -392.716977        c -1.80
iter:  25 09:35:49  -387.768254        c -1.87
iter:  26 09:37:20  -394.168045        c -2.27
iter:  27 09:38:53  -392.853530        c -1.86
iter:  28 09:40:24  -387.770980        c -1.97
iter:  29 09:41:58  -387.571038        c -2.42
iter:  30 09:43:32  -389.562373        c -2.32
iter:  31 09:45:04  -387.645736        c -2.05
iter:  32 09:46:35  -387.287342        c -2.22
iter:  33 09:48:10  -387.179917        c -2.32
iter:  34 09:49:43  -386.819645        c -2.34
iter:  35 09:51:13  -386.716223        c -2.61
iter:  36 09:52:44  -387.035071        c -2.69
iter:  37 09:54:18  -386.789652        c -2.45
iter:  38 09:55:48  -387.196698        c -2.76
iter:  39 09:57:19  -386.729935        c -2.52
iter:  40 09:58:56  -386.687953        c -2.94
iter:  41 10:00:27  -386.688158        c -3.06
iter:  42 10:01:58  -386.700204        c -3.03
iter:  43 10:03:29  -386.645136        c -2.65
iter:  44 10:05:02  -386.673055        c -3.28
iter:  45 10:06:33  -386.640730        c -3.09
iter:  46 10:08:04  -386.641342        c -3.27
iter:  47 10:09:35  -386.646957c       c -3.35
iter:  48 10:11:08  -386.657884        c -3.36
iter:  49 10:12:39  -386.654169        c -3.23
iter:  50 10:14:09  -386.652629c       c -3.29
iter:  51 10:15:40  -386.646189        c -2.94
iter:  52 10:17:14  -386.643423        c -3.42
iter:  53 10:18:45  -386.639775c       c -3.45
iter:  54 10:20:16  -386.642565c       c -3.55
iter:  55 10:21:46  -386.641651c       c -3.48
iter:  56 10:23:17  -386.647163c       c -3.40
iter:  57 10:24:53  -386.641560c       c -3.49
iter:  58 10:26:25  -386.674840        c -3.54
iter:  59 10:27:56  -386.648015        c -3.03
iter:  60 10:29:27  -386.637028        c -3.45
iter:  61 10:30:58  -386.639201        c -3.48
iter:  62 10:32:36  -386.637084c       c -3.82
iter:  63 10:34:09  -386.636559c       c -3.87
iter:  64 10:35:41  -386.638628c       c -3.81
iter:  65 10:37:11  -386.639845c       c -3.55
iter:  66 10:38:42  -386.647090        c -3.72
iter:  67 10:40:13  -386.638556        c -3.53
iter:  68 10:41:43  -386.635974        c -3.96
iter:  69 10:43:14  -386.638005c       c -3.59
iter:  70 10:44:45  -386.638061c       c -4.16c

Converged after 70 iterations.

Dipole moment: (-7.795581, -7.447836, 0.611289) |e|*Ang

Energy contributions relative to reference atoms: (reference = -2453656.357507)

Kinetic:        +38.842076
Potential:      -24.383300
External:        +0.000000
XC:            -398.070723
Entropy (-ST):   -3.860601
Local:           -1.095813
SIC:             +0.000000
--------------------------
Free energy:   -388.568361
Extrapolated:  -386.638061

Showing only first 2 kpts
 Kpt  Band  Eigenvalues  Occupancy
  0   366      0.79297    1.20799
  0   367      0.80040    1.17218
  0   368      0.82359    1.05790
  0   369      0.84208    0.96553

  1   366      0.77028    1.31358
  1   367      0.78543    1.24375
  1   368      0.79570    1.19491
  1   369      0.80822    1.13400


Fermi level: 0.83518

No gap
No difference between direct/indirect transitions
Timing:                              incl.     excl.
-----------------------------------------------------------
Basic WFS set positions:             0.000     0.000   0.0% |
Basis functions set positions:       0.183     0.183   0.0% |
LCAO WFS Initialize:                 0.428     0.110   0.0% |
 Hamiltonian:                        0.318     0.000   0.0% |
  Atomic:                            0.160     0.002   0.0% |
   XC Correction:                    0.158     0.158   0.0% |
  Calculate atomic Hamiltonians:     0.026     0.026   0.0% |
  Communicate:                       0.000     0.000   0.0% |
  Hartree integrate/restrict:        0.006     0.006   0.0% |
  Initialize Hamiltonian:            0.000     0.000   0.0% |
  Poisson:                           0.077     0.006   0.0% |
   Communicate from 1D:              0.008     0.008   0.0% |
   Communicate from 2D:              0.006     0.006   0.0% |
   Communicate to 1D:                0.011     0.011   0.0% |
   Communicate to 2D:                0.010     0.010   0.0% |
   FFT 1D:                           0.007     0.007   0.0% |
   FFT 2D:                           0.029     0.029   0.0% |
  XC 3D grid:                        0.046     0.046   0.0% |
  vbar:                              0.002     0.002   0.0% |
P tci:                               5.324     5.324   0.1% |
SCF-cycle:                        6351.531     0.191   0.0% |
 Density:                         4939.759     0.001   0.0% |
  Atomic density matrices:           1.321     1.321   0.0% |
  Mix:                               6.741     6.741   0.1% |
  Multipole moments:                 0.020     0.020   0.0% |
  Normalize:                         0.009     0.009   0.0% |
  Pseudo density:                 4931.668     0.028   0.0% |
   Calculate density matrix:        11.217    11.217   0.2% |
   Construct density:             4920.422  4920.422  77.3% |------------------------------|
   Symmetrize density:               0.001     0.001   0.0% |
 Hamiltonian:                       22.669     0.003   0.0% |
  Atomic:                           10.994     0.122   0.0% |
   XC Correction:                   10.872    10.872   0.2% |
  Calculate atomic Hamiltonians:     1.788     1.788   0.0% |
  Communicate:                       0.000     0.000   0.0% |
  Hartree integrate/restrict:        0.424     0.424   0.0% |
  Poisson:                           4.909     0.380   0.0% |
   Communicate from 1D:              0.555     0.555   0.0% |
   Communicate from 2D:              0.416     0.416   0.0% |
   Communicate to 1D:                0.508     0.508   0.0% |
   Communicate to 2D:                0.683     0.683   0.0% |
   FFT 1D:                           0.548     0.548   0.0% |
   FFT 2D:                           1.818     1.818   0.0% |
  XC 3D grid:                        4.067     4.067   0.1% |
  vbar:                              0.483     0.483   0.0% |
 LCAO eigensolver:                1388.913     2.173   0.0% |
  Calculate projections:            57.320    57.320   0.9% |
  DenseAtomicCorrection:           212.149   212.149   3.3% ||
  Distribute overlap matrix:         4.127     4.127   0.1% |
  Orbital Layouts:                 267.164   267.164   4.2% |-|
  Potential matrix:                756.783   756.783  11.9% |----|
  Sum over cells:                   89.195    89.195   1.4% ||
ST tci:                              2.030     2.030   0.0% |
Set symmetry:                        0.000     0.000   0.0% |
TCI: Evaluate splines:               0.311     0.311   0.0% |
mktci:                               0.026     0.026   0.0% |
Other:                               5.950     5.950   0.1% |
-----------------------------------------------------------
Total:                                      6365.784 100.0%

Memory usage: 4.49 GiB
Date: Sun Feb 22 10:44:45 2026
