
  ___ ___ ___ _ _ _  
 |   |   |_  | | | | 
 | | | | | . | | | | 
 |__ |  _|___|_____|  25.7.0
 |___|_|             

User:   mikei@Z790-AORUS-ELITE-AX
Date:   Sun Feb 22 10:44:45 2026
Arch:   x86_64
Pid:    89048
CWD:    /home/mikei/Dokumenty/code/cemea/ocx
Python: 3.10.16
gpaw:   /home/mikei/.pyenv/versions/cemea-env/lib/python3.10/site-packages/gpaw
_gpaw:  /home/mikei/.pyenv/versions/cemea-env/lib/python3.10/site-packages/
        _gpaw.cpython-310-x86_64-linux-gnu.so
ase:    /home/mikei/.pyenv/versions/cemea-env/lib/python3.10/site-packages/ase (version 3.27.0)
numpy:  /home/mikei/.pyenv/versions/cemea-env/lib/python3.10/site-packages/numpy (version 2.2.6)
scipy:  /home/mikei/.pyenv/versions/cemea-env/lib/python3.10/site-packages/scipy (version 1.15.3)
libxc:  2.x.y
units:  Angstrom and eV
cores: 1
OpenMP: False
OMP_NUM_THREADS: 1

Input parameters:
  basis: dzp
  convergence: {density: 0.0001,
                eigenstates: 1e-05,
                energy: 1e-05}
  kpts: [4 4 1]
  mode: lcao

System changes: positions, numbers, cell, pbc, initial_charges, initial_magmoms 

Initialize ...

species:
  Ni:
    name: Nickel
    id: 1802175e8de9ea26d9f4394ec1a7d564
    Z: 28.0
    valence: 16
    core: 12
    charge: 0.0
    file: /home/mikei/.pyenv/versions/cemea-env/lib/python3.10/site-packages/gpaw_data/setups/Ni.LDA.gz
    compensation charges: {type: gauss,
                           rc: 0.36,
                           lmax: 2}
    cutoffs: {filter: 2.14,
              core: 1.98}
    projectors:
      #              energy  rcut
      - 4s(2.00)    -5.858   1.164
      - 3p(6.00)   -71.266   1.207
      - 4p(0.00)    -1.338   1.207
      - 3d(8.00)    -9.141   1.138
      -  s          21.353   1.164
      -  d          18.071   1.138
  
    # LCAO basis set for Ni:
    #   Name: dzp
    #   File: /home/mikei/.pyenv/versions/cemea-env/lib/python3.10/site-packages/gpaw_data/setups/Ni.dzp.basis.gz
    #   Number of radial functions: 9
    #   Number of spherical harmonics: 27
    #     l=0, rc=8.5156 Bohr: 4s-sz confined orbital
    #     l=1, rc=2.9375 Bohr: 3p-sz confined orbital
    #     l=1, rc=12.4062 Bohr: 4p-sz confined orbital
    #     l=2, rc=4.6875 Bohr: 3d-sz confined orbital
    #     l=0, rc=4.9688 Bohr: 4s-dz split-valence wave
    #     l=1, rc=2.0781 Bohr: 3p-dz split-valence wave
    #     l=1, rc=7.5469 Bohr: 4p-dz split-valence wave
    #     l=2, rc=2.9375 Bohr: 3d-dz split-valence wave
    #     l=1, rc=8.5156 Bohr: p-type Gaussian polarization
    #   Number of RI-basis functions 0

  Mo:
    name: Molybdenum
    id: ac24daaf086600a00ce6d19a74574df1
    Z: 42.0
    valence: 14
    core: 28
    charge: 0.0
    file: /home/mikei/.pyenv/versions/cemea-env/lib/python3.10/site-packages/gpaw_data/setups/Mo.LDA.gz
    compensation charges: {type: gauss,
                           rc: 0.38,
                           lmax: 2}
    cutoffs: {filter: 2.16,
              core: 1.42}
    projectors:
      #              energy  rcut
      - 4s(2.00)   -64.384   1.238
      - 5s(1.00)    -4.319   1.238
      - 4p(6.00)   -38.595   1.296
      - 5p(0.00)    -1.161   1.296
      - 4d(5.00)    -3.933   1.296
      -  d          23.278   1.296
  
    # LCAO basis set for Mo:
    #   Name: dzp
    #   File: /home/mikei/.pyenv/versions/cemea-env/lib/python3.10/site-packages/gpaw_data/setups/Mo.dzp.basis.gz
    #   Number of radial functions: 11
    #   Number of spherical harmonics: 29
    #     l=0, rc=3.5469 Bohr: 4s-sz confined orbital
    #     l=0, rc=10.0469 Bohr: 5s-sz confined orbital
    #     l=1, rc=4.0781 Bohr: 4p-sz confined orbital
    #     l=1, rc=14.0938 Bohr: 5p-sz confined orbital
    #     l=2, rc=7.2031 Bohr: 4d-sz confined orbital
    #     l=0, rc=2.1250 Bohr: 4s-dz split-valence wave
    #     l=0, rc=6.1250 Bohr: 5s-dz split-valence wave
    #     l=1, rc=2.5469 Bohr: 4p-dz split-valence wave
    #     l=1, rc=8.7656 Bohr: 5p-dz split-valence wave
    #     l=2, rc=4.2344 Bohr: 4d-dz split-valence wave
    #     l=1, rc=10.0469 Bohr: p-type Gaussian polarization
    #   Number of RI-basis functions 0

  C:
    name: Carbon
    id: d60576a1f549371a163e72552ca58787
    Z: 6.0
    valence: 4
    core: 2
    charge: 0.0
    file: /home/mikei/.pyenv/versions/cemea-env/lib/python3.10/site-packages/gpaw_data/setups/C.LDA.gz
    compensation charges: {type: gauss,
                           rc: 0.20,
                           lmax: 2}
    cutoffs: {filter: 1.14,
              core: 1.14}
    projectors:
      #              energy  rcut
      - 2s(2.00)   -13.639   0.635
      - 2p(2.00)    -5.414   0.635
      -  s          13.573   0.635
      -  p          21.797   0.635
      -  d           0.000   0.635
  
    # LCAO basis set for C:
    #   Name: dzp
    #   File: /home/mikei/.pyenv/versions/cemea-env/lib/python3.10/site-packages/gpaw_data/setups/C.dzp.basis.gz
    #   Number of radial functions: 5
    #   Number of spherical harmonics: 13
    #     l=0, rc=5.5469 Bohr: 2s-sz confined orbital
    #     l=1, rc=6.6719 Bohr: 2p-sz confined orbital
    #     l=0, rc=3.0312 Bohr: 2s-dz split-valence wave
    #     l=1, rc=3.7500 Bohr: 2p-dz split-valence wave
    #     l=2, rc=6.6719 Bohr: d-type Gaussian polarization
    #   Number of RI-basis functions 0

  H:
    name: Hydrogen
    id: 4766778ce56282eaa64abeb28b7c1de3
    Z: 1.0
    valence: 1
    core: 0
    charge: 0.0
    file: /home/mikei/.pyenv/versions/cemea-env/lib/python3.10/site-packages/gpaw_data/setups/H.LDA.gz
    compensation charges: {type: gauss,
                           rc: 0.15,
                           lmax: 2}
    cutoffs: {filter: 0.85,
              core: 0.53}
    projectors:
      #              energy  rcut
      - 1s(1.00)    -6.353   0.476
      -  s          20.858   0.476
      -  p           0.000   0.476
  
    # LCAO basis set for H:
    #   Name: dzp
    #   File: /home/mikei/.pyenv/versions/cemea-env/lib/python3.10/site-packages/gpaw_data/setups/H.dzp.basis.gz
    #   Number of radial functions: 3
    #   Number of spherical harmonics: 5
    #     l=0, rc=6.4219 Bohr: 1s-sz confined orbital
    #     l=0, rc=3.6094 Bohr: 1s-dz split-valence wave
    #     l=1, rc=6.4219 Bohr: p-type Gaussian polarization
    #   Number of RI-basis functions 0

Reference energy: -2453668.486466  # eV

Spin-paired calculation

Convergence criteria:
 Maximum [total energy] change in last 3 cyles: 1e-05 eV / valence electron
 Maximum integral of absolute [dens]ity change: 0.0001 electrons / valence electron
 Maximum integral of absolute [eigenst]ate change: 1e-05 eV^2 / valence electron
 Maximum number of scf [iter]ations: 333
 (Square brackets indicate name in SCF output, whereas a 'c' in
 the SCF output indicates the quantity has converged.)

Symmetries present (total): 1

  ( 1  0  0)
  ( 0  1  0)
  ( 0  0  1)

16 k-points: 4 x 4 x 1 Monkhorst-Pack grid
8 k-points in the irreducible part of the Brillouin zone
       k-points in crystal coordinates                weights
   0:     0.12500000   -0.37500000    0.00000000          2/16
   1:     0.12500000   -0.12500000    0.00000000          2/16
   2:     0.12500000    0.12500000    0.00000000          2/16
   3:     0.12500000    0.37500000    0.00000000          2/16
   4:     0.37500000   -0.37500000    0.00000000          2/16
   5:     0.37500000   -0.12500000    0.00000000          2/16
   6:     0.37500000    0.12500000    0.00000000          2/16
   7:     0.37500000    0.37500000    0.00000000          2/16

Wave functions: LCAO
  Diagonalizer: Serial LAPACK
  Atomic Correction: dense with blas
  Data-type: complex
 

Occupation numbers: Fermi-Dirac:
  width: 0.1000  # eV
 

Eigensolver
   LCAO using direct dense diagonalizer 

Densities:
  Coarse grid: 36*36*128 grid
  Fine grid: 72*72*256 grid
  Total Charge: 0.000000 

Density mixing:
  Method: separate
  Backend: pulay
  Linear mixing parameter: 0.05
  old densities: 5
  Damping of long wavelength oscillations: 50 

Hamiltonian:
  XC and Coulomb potentials evaluated on a 72*72*256 grid
  Using the LDA Exchange-Correlation functional
  Interpolation: tri-quintic (5. degree polynomial)
  Poisson solver: FastPoissonSolver using
    Stencil: 6*3+1=19 point O(h^6) finite-difference Laplacian
    FFT axes: [np.int64(0), np.int64(1), np.int64(2)]
    FST axes: []
 

Memory estimate:
  Process memory now: 4595.48 MiB
  Calculator: 1067.60 MiB
    Density: 229.69 MiB
      Arrays: 32.91 MiB
      Localized functions: 184.13 MiB
      Mixer: 12.66 MiB
    Hamiltonian: 35.20 MiB
      Arrays: 21.52 MiB
      XC: 0.00 MiB
      Poisson: 0.00 MiB
      vbar: 13.68 MiB
    Wavefunctions: 802.71 MiB
      C [qnM]: 71.75 MiB
      S, T [2 x qmm]: 422.17 MiB
      P [aqMi]: 8.88 MiB
      BasisFunctions: 299.90 MiB
      Eigensolver: 0.00 MiB

Total number of cores used: 1

Number of atoms: 51
Number of atomic orbitals: 1315
Number of bands in calculation: 447
Number of valence electrons: 737
Bands to converge: occupied

... initialized

Initializing position-dependent things.

Density initialized from atomic densities
      .-----------------.  
     /|                 |  
    / |                 |  
   /  |                 |  
  /   |                 |  
 *    |                 |  
 |    |                 |  
 |    |                 |  
 |    |                 |  
 |    |    H            |  
 |    | Ni    Ni        |  
 |    |   Mo        Mo  |  
 |    |                 |  
 |    |Mo C      Mo C   |  
 |  Mo|       Mo        |  
 |    |                 |  
 |    |C         C      |  
 Mo Ni|   NMo   Ni      |  
 | Ni | NNi   NNi   Ni  |  
 |    |                 |  
 Ni   NNi   NNi   Ni    |  
 |  NNi   NNi   NNi     |  
 | Ni | NNi   NNi   Ni  |  
 |    |                 |  
 Ni   NNi   NNi   Ni    |  
 |   Ni    Ni    Ni     |  
 |    |                 |  
 |    |                 |  
 |    |                 |  
 |    |                 |  
 |    |                 |  
 |    .-----------------.  
 |   /                 /   
 |  /                 /    
 | /                 /     
 |/                 /      
 *-----------------*       

Atomic positions and initial magnetic moments

Positions:
   0 Ni     1.244508    1.244508    8.000000    ( 0.0000,  0.0000,  0.0000)
   1 Ni     3.733524    1.244508    8.000000    ( 0.0000,  0.0000,  0.0000)
   2 Ni     6.222540    1.244508    8.000000    ( 0.0000,  0.0000,  0.0000)
   3 Ni     1.244508    3.733524    8.000000    ( 0.0000,  0.0000,  0.0000)
   4 Ni     3.733524    3.733524    8.000000    ( 0.0000,  0.0000,  0.0000)
   5 Ni     6.222540    3.733524    8.000000    ( 0.0000,  0.0000,  0.0000)
   6 Ni     1.244508    6.222540    8.000000    ( 0.0000,  0.0000,  0.0000)
   7 Ni     3.733524    6.222540    8.000000    ( 0.0000,  0.0000,  0.0000)
   8 Ni     6.222540    6.222540    8.000000    ( 0.0000,  0.0000,  0.0000)
   9 Ni     0.000000    0.000000    9.760000    ( 0.0000,  0.0000,  0.0000)
  10 Ni     2.489016    0.000000    9.760000    ( 0.0000,  0.0000,  0.0000)
  11 Ni     4.978032    0.000000    9.760000    ( 0.0000,  0.0000,  0.0000)
  12 Ni     0.000000    2.489016    9.760000    ( 0.0000,  0.0000,  0.0000)
  13 Ni     2.489016    2.489016    9.760000    ( 0.0000,  0.0000,  0.0000)
  14 Ni     4.978032    2.489016    9.760000    ( 0.0000,  0.0000,  0.0000)
  15 Ni     0.000000    4.978032    9.760000    ( 0.0000,  0.0000,  0.0000)
  16 Ni     2.489016    4.978032    9.760000    ( 0.0000,  0.0000,  0.0000)
  17 Ni     4.978032    4.978032    9.760000    ( 0.0000,  0.0000,  0.0000)
  18 Ni     1.244508    1.244508   11.520000    ( 0.0000,  0.0000,  0.0000)
  19 Ni     3.733524    1.244508   11.520000    ( 0.0000,  0.0000,  0.0000)
  20 Ni     6.222540    1.244508   11.520000    ( 0.0000,  0.0000,  0.0000)
  21 Ni     1.244508    3.733524   11.520000    ( 0.0000,  0.0000,  0.0000)
  22 Ni     3.733524    3.733524   11.520000    ( 0.0000,  0.0000,  0.0000)
  23 Ni     6.222540    3.733524   11.520000    ( 0.0000,  0.0000,  0.0000)
  24 Ni     1.244508    6.222540   11.520000    ( 0.0000,  0.0000,  0.0000)
  25 Ni     3.733524    6.222540   11.520000    ( 0.0000,  0.0000,  0.0000)
  26 Ni     6.222540    6.222540   11.520000    ( 0.0000,  0.0000,  0.0000)
  27 Ni     0.000000    0.000000   13.280000    ( 0.0000,  0.0000,  0.0000)
  28 Ni     2.489016    0.000000   13.280000    ( 0.0000,  0.0000,  0.0000)
  29 Ni     4.978032    0.000000   13.280000    ( 0.0000,  0.0000,  0.0000)
  30 Ni     0.000000    2.489016   13.280000    ( 0.0000,  0.0000,  0.0000)
  31 Ni     2.489016    2.489016   13.280000    ( 0.0000,  0.0000,  0.0000)
  32 Ni     4.978032    2.489016   13.280000    ( 0.0000,  0.0000,  0.0000)
  33 Ni     0.000000    4.978032   13.280000    ( 0.0000,  0.0000,  0.0000)
  34 Ni     2.489016    4.978032   13.280000    ( 0.0000,  0.0000,  0.0000)
  35 Ni     4.978032    4.978032   13.280000    ( 0.0000,  0.0000,  0.0000)
  36 Mo     0.000000    0.000000   15.480000    ( 0.0000,  0.0000,  0.0000)
  37 Mo     2.060000    2.060000   17.540000    ( 0.0000,  0.0000,  0.0000)
  38 C      2.060000    2.060000   15.480000    ( 0.0000,  0.0000,  0.0000)
  39 Mo     0.000000    4.120000   15.480000    ( 0.0000,  0.0000,  0.0000)
  40 Mo     2.060000    6.180000   17.540000    ( 0.0000,  0.0000,  0.0000)
  41 C      2.060000    6.180000   15.480000    ( 0.0000,  0.0000,  0.0000)
  42 Mo     4.120000    0.000000   15.480000    ( 0.0000,  0.0000,  0.0000)
  43 Mo     6.180000    2.060000   17.540000    ( 0.0000,  0.0000,  0.0000)
  44 C      6.180000    2.060000   15.480000    ( 0.0000,  0.0000,  0.0000)
  45 Mo     4.120000    4.120000   15.480000    ( 0.0000,  0.0000,  0.0000)
  46 Mo     6.180000    6.180000   17.540000    ( 0.0000,  0.0000,  0.0000)
  47 C      6.180000    6.180000   15.480000    ( 0.0000,  0.0000,  0.0000)
  48 Ni     1.991786    3.191786   19.340000    ( 0.0000,  0.0000,  0.0000)
  49 Ni     4.391786    3.191786   19.340000    ( 0.0000,  0.0000,  0.0000)
  50 H      3.191786    3.191786   20.840000    ( 0.0000,  0.0000,  0.0000)

Unit cell:
           periodic     x           y           z      points  spacing
  1. axis:    yes    7.467048    0.000000    0.000000    36     0.2074
  2. axis:    yes    0.000000    7.467048    0.000000    36     0.2074
  3. axis:    yes    0.000000    0.000000   25.540000   128     0.1995

  Lengths:   7.467048   7.467048  25.540000
  Angles:   90.000000  90.000000  90.000000

Effective grid spacing dv^(1/3) = 0.2048

     iter     time        total  log10-change:
                         energy   eigst   dens
iter:   1 10:45:17 -1059.429766        c
iter:   2 10:46:47 -4114.153580        c -0.94
iter:   3 10:48:19  -632.046651        c -0.43
iter:   4 10:49:49  -487.083346        c -1.21
iter:   5 10:51:26  -450.521830        c -1.36
iter:   6 10:53:06  -455.334137        c -1.47
iter:   7 10:54:36  -484.187812        c -1.37
iter:   8 10:56:07  -496.371352        c -1.42
iter:   9 10:57:37  -495.318336        c -1.36
iter:  10 10:59:08  -456.130503        c -1.41
iter:  11 11:00:39  -440.030044        c -1.56
iter:  12 11:02:09  -520.592828        c -1.60
iter:  13 11:03:40  -442.924094        c -1.16
iter:  14 11:05:11  -427.598510        c -1.54
iter:  15 11:06:48  -415.832522        c -1.61
iter:  16 11:08:18  -403.476645        c -1.67
iter:  17 11:09:52  -403.389528        c -1.77
iter:  18 11:11:25  -459.800446        c -1.71
iter:  19 11:13:03  -395.311105        c -1.33
iter:  20 11:14:36  -405.592458        c -1.86
iter:  21 11:16:10  -401.270159        c -1.75
iter:  22 11:17:41  -405.431392        c -1.77
iter:  23 11:19:13  -407.555065        c -1.68
iter:  24 11:20:44  -477.198312        c -1.75
iter:  25 11:22:14  -404.489782        c -1.27
iter:  26 11:23:45  -402.961788        c -1.76
iter:  27 11:25:20  -403.651939        c -1.81
iter:  28 11:26:51  -402.730938        c -1.79
iter:  29 11:28:22  -401.286220        c -1.82
iter:  30 11:29:52  -468.597239        c -1.84
iter:  31 11:31:28  -399.662622        c -1.28
iter:  32 11:33:05  -396.518380        c -1.87
iter:  33 11:34:38  -398.128735        c -1.96
iter:  34 11:36:09  -393.270967        c -1.86
iter:  35 11:37:44  -394.207350        c -2.02
iter:  36 11:39:20  -424.983519        c -1.99
iter:  37 11:40:51  -395.638961        c -1.47
iter:  38 11:42:22  -392.465128        c -1.99
iter:  39 11:43:55  -399.614108        c -2.11
iter:  40 11:45:29  -395.034016        c -1.86
iter:  41 11:47:03  -394.136227        c -2.02
iter:  42 11:48:40  -398.515619        c -2.11
iter:  43 11:50:15  -391.453870        c -1.96
iter:  44 11:51:46  -392.928509        c -2.34
iter:  45 11:53:17  -390.540631        c -2.14
iter:  46 11:54:48  -390.565486        c -2.69
iter:  47 11:56:19  -390.446211        c -2.67
iter:  48 11:57:50  -391.237206        c -2.72
iter:  49 11:59:24  -390.664654        c -2.36
iter:  50 12:00:58  -390.404346        c -2.58
iter:  51 12:02:30  -390.795052        c -2.83
iter:  52 12:04:06  -390.420548        c -2.57
iter:  53 12:05:39  -390.394676        c -2.82
iter:  54 12:07:18  -390.379624        c -2.78
iter:  55 12:08:53  -390.321952        c -2.60
iter:  56 12:10:29  -390.347260        c -3.02
iter:  57 12:12:00  -390.281126        c -2.87
iter:  58 12:13:34  -390.274444        c -3.17
iter:  59 12:15:11  -390.322892        c -3.24
iter:  60 12:16:42  -390.276630        c -3.02
iter:  61 12:18:14  -390.277426        c -3.29
iter:  62 12:19:46  -390.263576        c -3.29
iter:  63 12:21:17  -390.262960        c -3.06
iter:  64 12:22:52  -390.267243c       c -3.43
iter:  65 12:24:28  -390.270980        c -3.47
iter:  66 12:26:02  -390.260223        c -3.07
iter:  67 12:27:35  -390.257267        c -3.59
iter:  68 12:29:06  -390.270884        c -3.46
iter:  69 12:30:37  -390.261654        c -3.39
iter:  70 12:32:07  -390.258869        c -3.61
iter:  71 12:33:38  -390.265072c       c -3.53
iter:  72 12:35:09  -390.255400        c -3.65
iter:  73 12:36:42  -390.260670        c -3.43
iter:  74 12:38:13  -390.260268c       c -3.72
iter:  75 12:39:45  -390.255706c       c -3.76
iter:  76 12:41:18  -390.257186c       c -3.68
iter:  77 12:42:53  -390.256463c       c -3.68
iter:  78 12:44:24  -390.258334c       c -4.01c

Converged after 78 iterations.

Dipole moment: (-7.766280, -7.442154, 0.335624) |e|*Ang

Energy contributions relative to reference atoms: (reference = -2453668.486466)

Kinetic:        +36.497566
Potential:      -23.365827
External:        +0.000000
XC:            -400.196765
Entropy (-ST):   -3.850096
Local:           -1.268261
SIC:             +0.000000
--------------------------
Free energy:   -392.183383
Extrapolated:  -390.258334

Showing only first 2 kpts
 Kpt  Band  Eigenvalues  Occupancy
  0   366      0.70479    1.23754
  0   367      0.71533    1.18727
  0   368      0.73834    1.07432
  0   369      0.75113    1.01048

  1   366      0.68912    1.31002
  1   367      0.69557    1.28055
  1   368      0.70858    1.21959
  1   369      0.72384    1.14587


Fermi level: 0.75323

No gap
No difference between direct/indirect transitions
Timing:                              incl.     excl.
-----------------------------------------------------------
Basic WFS set positions:             0.000     0.000   0.0% |
Basis functions set positions:       0.183     0.183   0.0% |
LCAO WFS Initialize:                 0.416     0.094   0.0% |
 Hamiltonian:                        0.322     0.000   0.0% |
  Atomic:                            0.162     0.002   0.0% |
   XC Correction:                    0.160     0.160   0.0% |
  Calculate atomic Hamiltonians:     0.027     0.027   0.0% |
  Communicate:                       0.000     0.000   0.0% |
  Hartree integrate/restrict:        0.006     0.006   0.0% |
  Initialize Hamiltonian:            0.000     0.000   0.0% |
  Poisson:                           0.079     0.006   0.0% |
   Communicate from 1D:              0.008     0.008   0.0% |
   Communicate from 2D:              0.006     0.006   0.0% |
   Communicate to 1D:                0.011     0.011   0.0% |
   Communicate to 2D:                0.011     0.011   0.0% |
   FFT 1D:                           0.008     0.008   0.0% |
   FFT 2D:                           0.029     0.029   0.0% |
  XC 3D grid:                        0.046     0.046   0.0% |
  vbar:                              0.003     0.003   0.0% |
P tci:                               5.371     5.371   0.1% |
SCF-cycle:                        7165.813     0.219   0.0% |
 Density:                         5502.576     0.001   0.0% |
  Atomic density matrices:           1.518     1.518   0.0% |
  Mix:                               8.302     8.302   0.1% |
  Multipole moments:                 0.022     0.022   0.0% |
  Normalize:                         0.010     0.010   0.0% |
  Pseudo density:                 5492.722     0.031   0.0% |
   Calculate density matrix:        12.569    12.569   0.2% |
   Construct density:             5480.122  5480.122  76.3% |------------------------------|
   Symmetrize density:               0.001     0.001   0.0% |
 Hamiltonian:                       25.733     0.003   0.0% |
  Atomic:                           12.350     0.138   0.0% |
   XC Correction:                   12.212    12.212   0.2% |
  Calculate atomic Hamiltonians:     2.001     2.001   0.0% |
  Communicate:                       0.000     0.000   0.0% |
  Hartree integrate/restrict:        0.464     0.464   0.0% |
  Poisson:                           5.584     0.449   0.0% |
   Communicate from 1D:              0.616     0.616   0.0% |
   Communicate from 2D:              0.464     0.464   0.0% |
   Communicate to 1D:                0.555     0.555   0.0% |
   Communicate to 2D:                0.735     0.735   0.0% |
   FFT 1D:                           0.597     0.597   0.0% |
   FFT 2D:                           2.167     2.167   0.0% |
  XC 3D grid:                        4.643     4.643   0.1% |
  vbar:                              0.686     0.686   0.0% |
 LCAO eigensolver:                1637.286     2.402   0.0% |
  Calculate projections:            66.157    66.157   0.9% |
  DenseAtomicCorrection:           243.337   243.337   3.4% ||
  Distribute overlap matrix:         5.262     5.262   0.1% |
  Orbital Layouts:                 374.762   374.762   5.2% |-|
  Potential matrix:                843.929   843.929  11.8% |----|
  Sum over cells:                  101.438   101.438   1.4% ||
ST tci:                              2.017     2.017   0.0% |
Set symmetry:                        0.000     0.000   0.0% |
TCI: Evaluate splines:               0.383     0.383   0.0% |
mktci:                               0.026     0.026   0.0% |
Other:                               4.451     4.451   0.1% |
-----------------------------------------------------------
Total:                                      7178.661 100.0%

Memory usage: 4.49 GiB
Date: Sun Feb 22 12:44:24 2026
