
  ___ ___ ___ _ _ _  
 |   |   |_  | | | | 
 | | | | | . | | | | 
 |__ |  _|___|_____|  25.7.0
 |___|_|             

User:   mikei@Z790-AORUS-ELITE-AX
Date:   Thu Feb 26 11:05:22 2026
Arch:   x86_64
Pid:    89048
CWD:    /home/mikei/Dokumenty/code/cemea/ocx
Python: 3.10.16
gpaw:   /home/mikei/.pyenv/versions/cemea-env/lib/python3.10/site-packages/gpaw
_gpaw:  /home/mikei/.pyenv/versions/cemea-env/lib/python3.10/site-packages/
        _gpaw.cpython-310-x86_64-linux-gnu.so
ase:    /home/mikei/.pyenv/versions/cemea-env/lib/python3.10/site-packages/ase (version 3.27.0)
numpy:  /home/mikei/.pyenv/versions/cemea-env/lib/python3.10/site-packages/numpy (version 2.2.6)
scipy:  /home/mikei/.pyenv/versions/cemea-env/lib/python3.10/site-packages/scipy (version 1.15.3)
libxc:  2.x.y
units:  Angstrom and eV
cores: 1
OpenMP: False
OMP_NUM_THREADS: 1

Input parameters:
  basis: dzp
  convergence: {density: 0.0001,
                eigenstates: 1e-05,
                energy: 1e-05}
  kpts: [4 4 1]
  mode: lcao

System changes: positions, numbers, cell, pbc, initial_charges, initial_magmoms 

Initialize ...

species:
  Ni:
    name: Nickel
    id: 1802175e8de9ea26d9f4394ec1a7d564
    Z: 28.0
    valence: 16
    core: 12
    charge: 0.0
    file: /home/mikei/.pyenv/versions/cemea-env/lib/python3.10/site-packages/gpaw_data/setups/Ni.LDA.gz
    compensation charges: {type: gauss,
                           rc: 0.36,
                           lmax: 2}
    cutoffs: {filter: 2.14,
              core: 1.98}
    projectors:
      #              energy  rcut
      - 4s(2.00)    -5.858   1.164
      - 3p(6.00)   -71.266   1.207
      - 4p(0.00)    -1.338   1.207
      - 3d(8.00)    -9.141   1.138
      -  s          21.353   1.164
      -  d          18.071   1.138
  
    # LCAO basis set for Ni:
    #   Name: dzp
    #   File: /home/mikei/.pyenv/versions/cemea-env/lib/python3.10/site-packages/gpaw_data/setups/Ni.dzp.basis.gz
    #   Number of radial functions: 9
    #   Number of spherical harmonics: 27
    #     l=0, rc=8.5156 Bohr: 4s-sz confined orbital
    #     l=1, rc=2.9375 Bohr: 3p-sz confined orbital
    #     l=1, rc=12.4062 Bohr: 4p-sz confined orbital
    #     l=2, rc=4.6875 Bohr: 3d-sz confined orbital
    #     l=0, rc=4.9688 Bohr: 4s-dz split-valence wave
    #     l=1, rc=2.0781 Bohr: 3p-dz split-valence wave
    #     l=1, rc=7.5469 Bohr: 4p-dz split-valence wave
    #     l=2, rc=2.9375 Bohr: 3d-dz split-valence wave
    #     l=1, rc=8.5156 Bohr: p-type Gaussian polarization
    #   Number of RI-basis functions 0

  Mo:
    name: Molybdenum
    id: ac24daaf086600a00ce6d19a74574df1
    Z: 42.0
    valence: 14
    core: 28
    charge: 0.0
    file: /home/mikei/.pyenv/versions/cemea-env/lib/python3.10/site-packages/gpaw_data/setups/Mo.LDA.gz
    compensation charges: {type: gauss,
                           rc: 0.38,
                           lmax: 2}
    cutoffs: {filter: 2.16,
              core: 1.42}
    projectors:
      #              energy  rcut
      - 4s(2.00)   -64.384   1.238
      - 5s(1.00)    -4.319   1.238
      - 4p(6.00)   -38.595   1.296
      - 5p(0.00)    -1.161   1.296
      - 4d(5.00)    -3.933   1.296
      -  d          23.278   1.296
  
    # LCAO basis set for Mo:
    #   Name: dzp
    #   File: /home/mikei/.pyenv/versions/cemea-env/lib/python3.10/site-packages/gpaw_data/setups/Mo.dzp.basis.gz
    #   Number of radial functions: 11
    #   Number of spherical harmonics: 29
    #     l=0, rc=3.5469 Bohr: 4s-sz confined orbital
    #     l=0, rc=10.0469 Bohr: 5s-sz confined orbital
    #     l=1, rc=4.0781 Bohr: 4p-sz confined orbital
    #     l=1, rc=14.0938 Bohr: 5p-sz confined orbital
    #     l=2, rc=7.2031 Bohr: 4d-sz confined orbital
    #     l=0, rc=2.1250 Bohr: 4s-dz split-valence wave
    #     l=0, rc=6.1250 Bohr: 5s-dz split-valence wave
    #     l=1, rc=2.5469 Bohr: 4p-dz split-valence wave
    #     l=1, rc=8.7656 Bohr: 5p-dz split-valence wave
    #     l=2, rc=4.2344 Bohr: 4d-dz split-valence wave
    #     l=1, rc=10.0469 Bohr: p-type Gaussian polarization
    #   Number of RI-basis functions 0

  C:
    name: Carbon
    id: d60576a1f549371a163e72552ca58787
    Z: 6.0
    valence: 4
    core: 2
    charge: 0.0
    file: /home/mikei/.pyenv/versions/cemea-env/lib/python3.10/site-packages/gpaw_data/setups/C.LDA.gz
    compensation charges: {type: gauss,
                           rc: 0.20,
                           lmax: 2}
    cutoffs: {filter: 1.14,
              core: 1.14}
    projectors:
      #              energy  rcut
      - 2s(2.00)   -13.639   0.635
      - 2p(2.00)    -5.414   0.635
      -  s          13.573   0.635
      -  p          21.797   0.635
      -  d           0.000   0.635
  
    # LCAO basis set for C:
    #   Name: dzp
    #   File: /home/mikei/.pyenv/versions/cemea-env/lib/python3.10/site-packages/gpaw_data/setups/C.dzp.basis.gz
    #   Number of radial functions: 5
    #   Number of spherical harmonics: 13
    #     l=0, rc=5.5469 Bohr: 2s-sz confined orbital
    #     l=1, rc=6.6719 Bohr: 2p-sz confined orbital
    #     l=0, rc=3.0312 Bohr: 2s-dz split-valence wave
    #     l=1, rc=3.7500 Bohr: 2p-dz split-valence wave
    #     l=2, rc=6.6719 Bohr: d-type Gaussian polarization
    #   Number of RI-basis functions 0

  Ir:
    name: Iridium
    id: ca472fc5a58bba06e8299391bae24b72
    Z: 77.0
    valence: 15
    core: 62
    charge: 0.0
    file: /home/mikei/.pyenv/versions/cemea-env/lib/python3.10/site-packages/gpaw_data/setups/Ir.LDA.gz
    compensation charges: {type: gauss,
                           rc: 0.40,
                           lmax: 2}
    cutoffs: {filter: 2.40,
              core: 2.36}
    projectors:
      #              energy  rcut
      - 6s(2.00)    -6.559   1.296
      - 5p(6.00)   -54.966   1.328
      - 6p(0.00)    -1.355   1.328
      - 5d(7.00)    -7.377   1.286
      -  s          20.652   1.296
      -  d          19.835   1.286
  
    # LCAO basis set for Ir:
    #   Name: dzp
    #   File: /home/mikei/.pyenv/versions/cemea-env/lib/python3.10/site-packages/gpaw_data/setups/Ir.dzp.basis.gz
    #   Number of radial functions: 9
    #   Number of spherical harmonics: 27
    #     l=0, rc=8.4062 Bohr: 6s-sz confined orbital
    #     l=1, rc=3.6406 Bohr: 5p-sz confined orbital
    #     l=1, rc=12.7031 Bohr: 6p-sz confined orbital
    #     l=2, rc=6.0469 Bohr: 5d-sz confined orbital
    #     l=0, rc=4.9844 Bohr: 6s-dz split-valence wave
    #     l=1, rc=2.4062 Bohr: 5p-dz split-valence wave
    #     l=1, rc=7.7969 Bohr: 6p-dz split-valence wave
    #     l=2, rc=3.5938 Bohr: 5d-dz split-valence wave
    #     l=1, rc=8.4062 Bohr: p-type Gaussian polarization
    #   Number of RI-basis functions 0

Reference energy: -4307904.117614  # eV

Spin-paired calculation

Convergence criteria:
 Maximum [total energy] change in last 3 cyles: 1e-05 eV / valence electron
 Maximum integral of absolute [dens]ity change: 0.0001 electrons / valence electron
 Maximum integral of absolute [eigenst]ate change: 1e-05 eV^2 / valence electron
 Maximum number of scf [iter]ations: 333
 (Square brackets indicate name in SCF output, whereas a 'c' in
 the SCF output indicates the quantity has converged.)

Symmetries present (total): 1

  ( 1  0  0)
  ( 0  1  0)
  ( 0  0  1)

16 k-points: 4 x 4 x 1 Monkhorst-Pack grid
8 k-points in the irreducible part of the Brillouin zone
       k-points in crystal coordinates                weights
   0:     0.12500000   -0.37500000    0.00000000          2/16
   1:     0.12500000   -0.12500000    0.00000000          2/16
   2:     0.12500000    0.12500000    0.00000000          2/16
   3:     0.12500000    0.37500000    0.00000000          2/16
   4:     0.37500000   -0.37500000    0.00000000          2/16
   5:     0.37500000   -0.12500000    0.00000000          2/16
   6:     0.37500000    0.12500000    0.00000000          2/16
   7:     0.37500000    0.37500000    0.00000000          2/16

Wave functions: LCAO
  Diagonalizer: Serial LAPACK
  Atomic Correction: dense with blas
  Data-type: complex
 

Occupation numbers: Fermi-Dirac:
  width: 0.1000  # eV
 

Eigensolver
   LCAO using direct dense diagonalizer 

Densities:
  Coarse grid: 32*32*132 grid
  Fine grid: 64*64*264 grid
  Total Charge: 0.000000 

Density mixing:
  Method: separate
  Backend: pulay
  Linear mixing parameter: 0.05
  old densities: 5
  Damping of long wavelength oscillations: 50 

Hamiltonian:
  XC and Coulomb potentials evaluated on a 64*64*264 grid
  Using the LDA Exchange-Correlation functional
  Interpolation: tri-quintic (5. degree polynomial)
  Poisson solver: FastPoissonSolver using
    Stencil: 8*3+1=25 point O(h^6) finite-difference Laplacian
    FFT axes: [np.int64(0), np.int64(1), np.int64(2)]
    FST axes: []
 

Memory estimate:
  Process memory now: 4796.85 MiB
  Calculator: 1073.95 MiB
    Density: 216.37 MiB
      Arrays: 26.81 MiB
      Localized functions: 179.25 MiB
      Mixer: 10.31 MiB
    Hamiltonian: 30.96 MiB
      Arrays: 17.53 MiB
      XC: 0.00 MiB
      Poisson: 0.00 MiB
      vbar: 13.42 MiB
    Wavefunctions: 826.63 MiB
      C [qnM]: 77.09 MiB
      S, T [2 x qmm]: 454.22 MiB
      P [aqMi]: 9.53 MiB
      BasisFunctions: 285.78 MiB
      Eigensolver: 0.00 MiB

Total number of cores used: 1

Number of atoms: 52
Number of atomic orbitals: 1364
Number of bands in calculation: 463
Number of valence electrons: 764
Bands to converge: occupied

... initialized

Initializing position-dependent things.

Density initialized from atomic densities
                                         
                                         
                                         
                                         
                                         
                Ir    Ir                 
               Iro  Ir    Mo             
                                         
             Mo C      Mo C              
                                         
         Mo         Mo                   
             C         C                 
       Mo       NMo   Ni    Ni           
                                         
           Ni    Ni    NNi   Ni          
       Ni   NNi   NNi   Ni               
        Ni    Ni    Ni                   
                   Ni    Ni    Ni        
               Ni    Ni    Ni            
           Ni    Ni    Ni                
                Ni    Ni    Ni           
           Ni    Ni     Ni               
       Ni    Ni    Ni                    
                                         
                                         
                                         
                                         

Atomic positions and initial magnetic moments

Positions:
   0 Ni     0.000000    0.000000    8.000000    ( 0.0000,  0.0000,  0.0000)
   1 Ni     2.489016    0.000000    8.000000    ( 0.0000,  0.0000,  0.0000)
   2 Ni     4.978032    0.000000    8.000000    ( 0.0000,  0.0000,  0.0000)
   3 Ni     1.244508    2.155551    8.000000    ( 0.0000,  0.0000,  0.0000)
   4 Ni     3.733524    2.155551    8.000000    ( 0.0000,  0.0000,  0.0000)
   5 Ni     6.222540    2.155551    8.000000    ( 0.0000,  0.0000,  0.0000)
   6 Ni     2.489016    4.311102    8.000000    ( 0.0000,  0.0000,  0.0000)
   7 Ni     4.978032    4.311102    8.000000    ( 0.0000,  0.0000,  0.0000)
   8 Ni     7.467048    4.311102    8.000000    ( 0.0000,  0.0000,  0.0000)
   9 Ni     1.244508    0.718517   10.032273    ( 0.0000,  0.0000,  0.0000)
  10 Ni     3.733524    0.718517   10.032273    ( 0.0000,  0.0000,  0.0000)
  11 Ni     6.222540    0.718517   10.032273    ( 0.0000,  0.0000,  0.0000)
  12 Ni     2.489016    2.874068   10.032273    ( 0.0000,  0.0000,  0.0000)
  13 Ni     4.978032    2.874068   10.032273    ( 0.0000,  0.0000,  0.0000)
  14 Ni     7.467048    2.874068   10.032273    ( 0.0000,  0.0000,  0.0000)
  15 Ni     3.733524    5.029619   10.032273    ( 0.0000,  0.0000,  0.0000)
  16 Ni     6.222540    5.029619   10.032273    ( 0.0000,  0.0000,  0.0000)
  17 Ni     8.711556    5.029619   10.032273    ( 0.0000,  0.0000,  0.0000)
  18 Ni     0.000000    1.437034   12.064546    ( 0.0000,  0.0000,  0.0000)
  19 Ni     2.489016    1.437034   12.064546    ( 0.0000,  0.0000,  0.0000)
  20 Ni     4.978032    1.437034   12.064546    ( 0.0000,  0.0000,  0.0000)
  21 Ni     1.244508    3.592585   12.064546    ( 0.0000,  0.0000,  0.0000)
  22 Ni     3.733524    3.592585   12.064546    ( 0.0000,  0.0000,  0.0000)
  23 Ni     6.222540    3.592585   12.064546    ( 0.0000,  0.0000,  0.0000)
  24 Ni     2.489016    5.748136   12.064546    ( 0.0000,  0.0000,  0.0000)
  25 Ni     4.978032    5.748136   12.064546    ( 0.0000,  0.0000,  0.0000)
  26 Ni     7.467048    5.748136   12.064546    ( 0.0000,  0.0000,  0.0000)
  27 Ni     0.000000    0.000000   14.096819    ( 0.0000,  0.0000,  0.0000)
  28 Ni     2.489016    0.000000   14.096819    ( 0.0000,  0.0000,  0.0000)
  29 Ni     4.978032    0.000000   14.096819    ( 0.0000,  0.0000,  0.0000)
  30 Ni     1.244508    2.155551   14.096819    ( 0.0000,  0.0000,  0.0000)
  31 Ni     3.733524    2.155551   14.096819    ( 0.0000,  0.0000,  0.0000)
  32 Ni     6.222540    2.155551   14.096819    ( 0.0000,  0.0000,  0.0000)
  33 Ni     2.489016    4.311102   14.096819    ( 0.0000,  0.0000,  0.0000)
  34 Ni     4.978032    4.311102   14.096819    ( 0.0000,  0.0000,  0.0000)
  35 Ni     7.467048    4.311102   14.096819    ( 0.0000,  0.0000,  0.0000)
  36 Mo     0.000000    0.000000   16.296819    ( 0.0000,  0.0000,  0.0000)
  37 Mo     2.060000    2.060000   18.356819    ( 0.0000,  0.0000,  0.0000)
  38 C      2.060000    2.060000   16.296819    ( 0.0000,  0.0000,  0.0000)
  39 Mo     0.000000    4.120000   16.296819    ( 0.0000,  0.0000,  0.0000)
  40 Mo     2.060000    6.180000   18.356819    ( 0.0000,  0.0000,  0.0000)
  41 C      2.060000    6.180000   16.296819    ( 0.0000,  0.0000,  0.0000)
  42 Mo     4.120000    0.000000   16.296819    ( 0.0000,  0.0000,  0.0000)
  43 Mo     6.180000    2.060000   18.356819    ( 0.0000,  0.0000,  0.0000)
  44 C      6.180000    2.060000   16.296819    ( 0.0000,  0.0000,  0.0000)
  45 Mo     4.120000    4.120000   16.296819    ( 0.0000,  0.0000,  0.0000)
  46 Mo     6.180000    6.180000   18.356819    ( 0.0000,  0.0000,  0.0000)
  47 C      6.180000    6.180000   16.296819    ( 0.0000,  0.0000,  0.0000)
  48 Ir     2.691821    1.679162   20.156819    ( 0.0000,  0.0000,  0.0000)
  49 Ir     2.691821    4.079162   20.156819    ( 0.0000,  0.0000,  0.0000)
  50 Ir     5.091821    1.679162   20.156819    ( 0.0000,  0.0000,  0.0000)
  51 Ir     5.091821    4.079162   20.156819    ( 0.0000,  0.0000,  0.0000)

Unit cell:
           periodic     x           y           z      points  spacing
  1. axis:    yes    7.467048    0.000000    0.000000    32     0.2021
  2. axis:    yes    3.733524    6.466653    0.000000    32     0.2021
  3. axis:    yes    0.000000    0.000000   26.356819   132     0.1997

  Lengths:   7.467048   7.467048  26.356819
  Angles:   90.000000  90.000000  60.000000

Effective grid spacing dv^(1/3) = 0.2112

     iter     time        total  log10-change:
                         energy   eigst   dens
iter:   1 11:07:40 -1596.671341        c
iter:   2 11:10:23 -7880.705460        c -0.82
iter:   3 11:12:35  -714.150058        c -0.37
iter:   4 11:16:04  -450.823674        c -1.11
iter:   5 11:18:53  -439.563198        c -1.47
iter:   6 11:21:40  -427.254379        c -1.53
iter:   7 11:24:29  -441.992097        c -1.56
iter:   8 11:27:10  -468.671002        c -1.57
iter:   9 11:30:41  -436.733845        c -1.42
iter:  10 11:33:13  -432.034246        c -1.65
iter:  11 11:35:54  -423.047008        c -1.64
iter:  12 11:38:39  -429.809301        c -1.70
iter:  13 11:41:11  -428.604776        c -1.69
iter:  14 11:43:36  -421.891484        c -1.69
iter:  15 11:46:21  -430.667246        c -1.83
iter:  16 11:49:07  -420.376454        c -1.72
iter:  17 11:52:16  -432.951095        c -1.92
iter:  18 11:54:35  -416.079087        c -1.80
iter:  19 11:57:05  -437.044143        c -1.93
iter:  20 11:59:38  -413.581163        c -1.66
iter:  21 12:02:13  -426.162036        c -2.05
iter:  22 12:05:04  -421.787959        c -1.92
iter:  23 12:07:44  -417.439581        c -1.80
iter:  24 12:10:15  -415.268166        c -2.07
iter:  25 12:13:05  -416.330229        c -1.97
iter:  26 12:15:32  -417.362862        c -2.10
iter:  27 12:18:35  -412.421555        c -1.98
iter:  28 12:21:36  -412.112037        c -2.25
iter:  29 12:24:09  -413.177183        c -2.42
iter:  30 12:27:02  -412.317718        c -2.21
iter:  31 12:29:41  -412.375722        c -2.51
iter:  32 12:32:34  -413.046937        c -2.45
iter:  33 12:35:10  -412.265400        c -2.38
iter:  34 12:37:41  -412.141589        c -2.51
iter:  35 12:40:57  -412.041672        c -2.56
iter:  36 12:43:57  -412.291823        c -2.74
iter:  37 12:46:29  -411.970668        c -2.50
iter:  38 12:49:10  -411.884019        c -2.77
iter:  39 12:52:04  -411.819395        c -2.91
iter:  40 12:54:54  -411.820525        c -3.25
iter:  41 12:58:01  -411.830893        c -3.09
iter:  42 13:00:49  -411.819013        c -3.20
iter:  43 13:03:46  -411.833179        c -3.29
iter:  44 13:06:19  -412.318200        c -3.27
iter:  45 13:09:15  -411.818614        c -2.59
iter:  46 13:12:08  -411.814112        c -3.19
iter:  47 13:14:42  -411.814957c       c -3.58
iter:  48 13:16:56  -411.813367c       c -3.73
iter:  49 13:19:16  -411.811319c       c -3.77
iter:  50 13:21:49  -411.813201c       c -3.79
iter:  51 13:24:36  -411.819741        c -3.60
iter:  52 13:27:04  -411.820265c       c -3.61
iter:  53 13:30:00  -411.811860        c -3.56
iter:  54 13:33:00  -411.814798        c -3.72
iter:  55 13:35:51  -411.812836c       c -3.91
iter:  56 13:38:16  -411.814431c       c -3.93
iter:  57 13:40:34  -411.813362c       c -3.97
iter:  58 13:42:56  -411.811042c       c -4.10c

Converged after 58 iterations.

Dipole moment: (-14.506922, 21.328332, 0.063694) |e|*Ang

Energy contributions relative to reference atoms: (reference = -4307904.117614)

Kinetic:       +368.826065
Potential:     -304.679343
External:        +0.000000
XC:            -472.395705
Entropy (-ST):   -3.699929
Local:           -1.712094
SIC:             +0.000000
--------------------------
Free energy:   -413.661007
Extrapolated:  -411.811042

Showing only first 2 kpts
 Kpt  Band  Eigenvalues  Occupancy
  0   380      1.77411    1.02624
  0   381      1.79684    0.91282
  0   382      1.80831    0.85628
  0   383      1.81386    0.82918

  1   380      1.69499    1.39850
  1   381      1.70959    1.33538
  1   382      1.71465    1.31273
  1   383      1.72372    1.27125


Fermi level: 1.77936

No gap
No difference between direct/indirect transitions
Timing:                              incl.     excl.
-----------------------------------------------------------
Basic WFS set positions:             0.001     0.001   0.0% |
Basis functions set positions:       0.191     0.191   0.0% |
LCAO WFS Initialize:                 0.405     0.093   0.0% |
 Hamiltonian:                        0.311     0.000   0.0% |
  Atomic:                            0.173     0.002   0.0% |
   XC Correction:                    0.171     0.171   0.0% |
  Calculate atomic Hamiltonians:     0.027     0.027   0.0% |
  Communicate:                       0.000     0.000   0.0% |
  Hartree integrate/restrict:        0.011     0.011   0.0% |
  Initialize Hamiltonian:            0.001     0.001   0.0% |
  Poisson:                           0.059     0.004   0.0% |
   Communicate from 1D:              0.006     0.006   0.0% |
   Communicate from 2D:              0.007     0.007   0.0% |
   Communicate to 1D:                0.006     0.006   0.0% |
   Communicate to 2D:                0.011     0.011   0.0% |
   FFT 1D:                           0.009     0.009   0.0% |
   FFT 2D:                           0.016     0.016   0.0% |
  XC 3D grid:                        0.037     0.037   0.0% |
  vbar:                              0.005     0.005   0.0% |
P tci:                               5.885     5.885   0.1% |
SCF-cycle:                        9438.785     0.253   0.0% |
 Density:                         4577.299     0.001   0.0% |
  Atomic density matrices:           1.214     1.214   0.0% |
  Mix:                               7.772     7.772   0.1% |
  Multipole moments:                 0.017     0.017   0.0% |
  Normalize:                         0.006     0.006   0.0% |
  Pseudo density:                 4568.290     0.230   0.0% |
   Calculate density matrix:        14.833    14.833   0.2% |
   Construct density:             4553.226  4553.226  48.2% |------------------|
   Symmetrize density:               0.001     0.001   0.0% |
 Hamiltonian:                       19.308     0.003   0.0% |
  Atomic:                            9.833     0.110   0.0% |
   XC Correction:                    9.723     9.723   0.1% |
  Calculate atomic Hamiltonians:     1.520     1.520   0.0% |
  Communicate:                       0.000     0.000   0.0% |
  Hartree integrate/restrict:        0.581     0.581   0.0% |
  Poisson:                           3.407     0.306   0.0% |
   Communicate from 1D:              0.415     0.415   0.0% |
   Communicate from 2D:              0.372     0.372   0.0% |
   Communicate to 1D:                0.397     0.397   0.0% |
   Communicate to 2D:                0.483     0.483   0.0% |
   FFT 1D:                           0.441     0.441   0.0% |
   FFT 2D:                           0.994     0.994   0.0% |
  XC 3D grid:                        3.289     3.289   0.0% |
  vbar:                              0.674     0.674   0.0% |
 LCAO eigensolver:                4841.924     2.226   0.0% |
  Calculate projections:           102.549   102.549   1.1% |
  DenseAtomicCorrection:           321.555   321.555   3.4% ||
  Distribute overlap matrix:         3.872     3.872   0.0% |
  Orbital Layouts:                3473.599  3473.599  36.7% |--------------|
  Potential matrix:                738.336   738.336   7.8% |--|
  Sum over cells:                  199.789   199.789   2.1% ||
ST tci:                              2.541     2.541   0.0% |
Set symmetry:                        0.000     0.000   0.0% |
TCI: Evaluate splines:               0.607     0.607   0.0% |
mktci:                               0.032     0.032   0.0% |
Other:                               6.140     6.140   0.1% |
-----------------------------------------------------------
Total:                                      9454.586 100.0%

Memory usage: 4.68 GiB
Date: Thu Feb 26 13:42:56 2026
