
  ___ ___ ___ _ _ _  
 |   |   |_  | | | | 
 | | | | | . | | | | 
 |__ |  _|___|_____|  25.7.0
 |___|_|             

User:   mikei@Z790-AORUS-ELITE-AX
Date:   Thu Feb 26 13:42:56 2026
Arch:   x86_64
Pid:    89048
CWD:    /home/mikei/Dokumenty/code/cemea/ocx
Python: 3.10.16
gpaw:   /home/mikei/.pyenv/versions/cemea-env/lib/python3.10/site-packages/gpaw
_gpaw:  /home/mikei/.pyenv/versions/cemea-env/lib/python3.10/site-packages/
        _gpaw.cpython-310-x86_64-linux-gnu.so
ase:    /home/mikei/.pyenv/versions/cemea-env/lib/python3.10/site-packages/ase (version 3.27.0)
numpy:  /home/mikei/.pyenv/versions/cemea-env/lib/python3.10/site-packages/numpy (version 2.2.6)
scipy:  /home/mikei/.pyenv/versions/cemea-env/lib/python3.10/site-packages/scipy (version 1.15.3)
libxc:  2.x.y
units:  Angstrom and eV
cores: 1
OpenMP: False
OMP_NUM_THREADS: 1

Input parameters:
  basis: dzp
  convergence: {density: 0.0001,
                eigenstates: 1e-05,
                energy: 1e-05}
  kpts: [4 4 1]
  mode: lcao

System changes: positions, numbers, cell, pbc, initial_charges, initial_magmoms 

Initialize ...

species:
  Ni:
    name: Nickel
    id: 1802175e8de9ea26d9f4394ec1a7d564
    Z: 28.0
    valence: 16
    core: 12
    charge: 0.0
    file: /home/mikei/.pyenv/versions/cemea-env/lib/python3.10/site-packages/gpaw_data/setups/Ni.LDA.gz
    compensation charges: {type: gauss,
                           rc: 0.36,
                           lmax: 2}
    cutoffs: {filter: 2.14,
              core: 1.98}
    projectors:
      #              energy  rcut
      - 4s(2.00)    -5.858   1.164
      - 3p(6.00)   -71.266   1.207
      - 4p(0.00)    -1.338   1.207
      - 3d(8.00)    -9.141   1.138
      -  s          21.353   1.164
      -  d          18.071   1.138
  
    # LCAO basis set for Ni:
    #   Name: dzp
    #   File: /home/mikei/.pyenv/versions/cemea-env/lib/python3.10/site-packages/gpaw_data/setups/Ni.dzp.basis.gz
    #   Number of radial functions: 9
    #   Number of spherical harmonics: 27
    #     l=0, rc=8.5156 Bohr: 4s-sz confined orbital
    #     l=1, rc=2.9375 Bohr: 3p-sz confined orbital
    #     l=1, rc=12.4062 Bohr: 4p-sz confined orbital
    #     l=2, rc=4.6875 Bohr: 3d-sz confined orbital
    #     l=0, rc=4.9688 Bohr: 4s-dz split-valence wave
    #     l=1, rc=2.0781 Bohr: 3p-dz split-valence wave
    #     l=1, rc=7.5469 Bohr: 4p-dz split-valence wave
    #     l=2, rc=2.9375 Bohr: 3d-dz split-valence wave
    #     l=1, rc=8.5156 Bohr: p-type Gaussian polarization
    #   Number of RI-basis functions 0

  Mo:
    name: Molybdenum
    id: ac24daaf086600a00ce6d19a74574df1
    Z: 42.0
    valence: 14
    core: 28
    charge: 0.0
    file: /home/mikei/.pyenv/versions/cemea-env/lib/python3.10/site-packages/gpaw_data/setups/Mo.LDA.gz
    compensation charges: {type: gauss,
                           rc: 0.38,
                           lmax: 2}
    cutoffs: {filter: 2.16,
              core: 1.42}
    projectors:
      #              energy  rcut
      - 4s(2.00)   -64.384   1.238
      - 5s(1.00)    -4.319   1.238
      - 4p(6.00)   -38.595   1.296
      - 5p(0.00)    -1.161   1.296
      - 4d(5.00)    -3.933   1.296
      -  d          23.278   1.296
  
    # LCAO basis set for Mo:
    #   Name: dzp
    #   File: /home/mikei/.pyenv/versions/cemea-env/lib/python3.10/site-packages/gpaw_data/setups/Mo.dzp.basis.gz
    #   Number of radial functions: 11
    #   Number of spherical harmonics: 29
    #     l=0, rc=3.5469 Bohr: 4s-sz confined orbital
    #     l=0, rc=10.0469 Bohr: 5s-sz confined orbital
    #     l=1, rc=4.0781 Bohr: 4p-sz confined orbital
    #     l=1, rc=14.0938 Bohr: 5p-sz confined orbital
    #     l=2, rc=7.2031 Bohr: 4d-sz confined orbital
    #     l=0, rc=2.1250 Bohr: 4s-dz split-valence wave
    #     l=0, rc=6.1250 Bohr: 5s-dz split-valence wave
    #     l=1, rc=2.5469 Bohr: 4p-dz split-valence wave
    #     l=1, rc=8.7656 Bohr: 5p-dz split-valence wave
    #     l=2, rc=4.2344 Bohr: 4d-dz split-valence wave
    #     l=1, rc=10.0469 Bohr: p-type Gaussian polarization
    #   Number of RI-basis functions 0

  C:
    name: Carbon
    id: d60576a1f549371a163e72552ca58787
    Z: 6.0
    valence: 4
    core: 2
    charge: 0.0
    file: /home/mikei/.pyenv/versions/cemea-env/lib/python3.10/site-packages/gpaw_data/setups/C.LDA.gz
    compensation charges: {type: gauss,
                           rc: 0.20,
                           lmax: 2}
    cutoffs: {filter: 1.14,
              core: 1.14}
    projectors:
      #              energy  rcut
      - 2s(2.00)   -13.639   0.635
      - 2p(2.00)    -5.414   0.635
      -  s          13.573   0.635
      -  p          21.797   0.635
      -  d           0.000   0.635
  
    # LCAO basis set for C:
    #   Name: dzp
    #   File: /home/mikei/.pyenv/versions/cemea-env/lib/python3.10/site-packages/gpaw_data/setups/C.dzp.basis.gz
    #   Number of radial functions: 5
    #   Number of spherical harmonics: 13
    #     l=0, rc=5.5469 Bohr: 2s-sz confined orbital
    #     l=1, rc=6.6719 Bohr: 2p-sz confined orbital
    #     l=0, rc=3.0312 Bohr: 2s-dz split-valence wave
    #     l=1, rc=3.7500 Bohr: 2p-dz split-valence wave
    #     l=2, rc=6.6719 Bohr: d-type Gaussian polarization
    #   Number of RI-basis functions 0

  Ir:
    name: Iridium
    id: ca472fc5a58bba06e8299391bae24b72
    Z: 77.0
    valence: 15
    core: 62
    charge: 0.0
    file: /home/mikei/.pyenv/versions/cemea-env/lib/python3.10/site-packages/gpaw_data/setups/Ir.LDA.gz
    compensation charges: {type: gauss,
                           rc: 0.40,
                           lmax: 2}
    cutoffs: {filter: 2.40,
              core: 2.36}
    projectors:
      #              energy  rcut
      - 6s(2.00)    -6.559   1.296
      - 5p(6.00)   -54.966   1.328
      - 6p(0.00)    -1.355   1.328
      - 5d(7.00)    -7.377   1.286
      -  s          20.652   1.296
      -  d          19.835   1.286
  
    # LCAO basis set for Ir:
    #   Name: dzp
    #   File: /home/mikei/.pyenv/versions/cemea-env/lib/python3.10/site-packages/gpaw_data/setups/Ir.dzp.basis.gz
    #   Number of radial functions: 9
    #   Number of spherical harmonics: 27
    #     l=0, rc=8.4062 Bohr: 6s-sz confined orbital
    #     l=1, rc=3.6406 Bohr: 5p-sz confined orbital
    #     l=1, rc=12.7031 Bohr: 6p-sz confined orbital
    #     l=2, rc=6.0469 Bohr: 5d-sz confined orbital
    #     l=0, rc=4.9844 Bohr: 6s-dz split-valence wave
    #     l=1, rc=2.4062 Bohr: 5p-dz split-valence wave
    #     l=1, rc=7.7969 Bohr: 6p-dz split-valence wave
    #     l=2, rc=3.5938 Bohr: 5d-dz split-valence wave
    #     l=1, rc=8.4062 Bohr: p-type Gaussian polarization
    #   Number of RI-basis functions 0

  H:
    name: Hydrogen
    id: 4766778ce56282eaa64abeb28b7c1de3
    Z: 1.0
    valence: 1
    core: 0
    charge: 0.0
    file: /home/mikei/.pyenv/versions/cemea-env/lib/python3.10/site-packages/gpaw_data/setups/H.LDA.gz
    compensation charges: {type: gauss,
                           rc: 0.15,
                           lmax: 2}
    cutoffs: {filter: 0.85,
              core: 0.53}
    projectors:
      #              energy  rcut
      - 1s(1.00)    -6.353   0.476
      -  s          20.858   0.476
      -  p           0.000   0.476
  
    # LCAO basis set for H:
    #   Name: dzp
    #   File: /home/mikei/.pyenv/versions/cemea-env/lib/python3.10/site-packages/gpaw_data/setups/H.dzp.basis.gz
    #   Number of radial functions: 3
    #   Number of spherical harmonics: 5
    #     l=0, rc=6.4219 Bohr: 1s-sz confined orbital
    #     l=0, rc=3.6094 Bohr: 1s-dz split-valence wave
    #     l=1, rc=6.4219 Bohr: p-type Gaussian polarization
    #   Number of RI-basis functions 0

Reference energy: -4307916.246572  # eV

Spin-paired calculation

Convergence criteria:
 Maximum [total energy] change in last 3 cyles: 1e-05 eV / valence electron
 Maximum integral of absolute [dens]ity change: 0.0001 electrons / valence electron
 Maximum integral of absolute [eigenst]ate change: 1e-05 eV^2 / valence electron
 Maximum number of scf [iter]ations: 333
 (Square brackets indicate name in SCF output, whereas a 'c' in
 the SCF output indicates the quantity has converged.)

Symmetries present (total): 1

  ( 1  0  0)
  ( 0  1  0)
  ( 0  0  1)

16 k-points: 4 x 4 x 1 Monkhorst-Pack grid
8 k-points in the irreducible part of the Brillouin zone
       k-points in crystal coordinates                weights
   0:     0.12500000   -0.37500000    0.00000000          2/16
   1:     0.12500000   -0.12500000    0.00000000          2/16
   2:     0.12500000    0.12500000    0.00000000          2/16
   3:     0.12500000    0.37500000    0.00000000          2/16
   4:     0.37500000   -0.37500000    0.00000000          2/16
   5:     0.37500000   -0.12500000    0.00000000          2/16
   6:     0.37500000    0.12500000    0.00000000          2/16
   7:     0.37500000    0.37500000    0.00000000          2/16

Wave functions: LCAO
  Diagonalizer: Serial LAPACK
  Atomic Correction: dense with blas
  Data-type: complex
 

Occupation numbers: Fermi-Dirac:
  width: 0.1000  # eV
 

Eigensolver
   LCAO using direct dense diagonalizer 

Densities:
  Coarse grid: 32*32*132 grid
  Fine grid: 64*64*264 grid
  Total Charge: 0.000000 

Density mixing:
  Method: separate
  Backend: pulay
  Linear mixing parameter: 0.05
  old densities: 5
  Damping of long wavelength oscillations: 50 

Hamiltonian:
  XC and Coulomb potentials evaluated on a 64*64*264 grid
  Using the LDA Exchange-Correlation functional
  Interpolation: tri-quintic (5. degree polynomial)
  Poisson solver: FastPoissonSolver using
    Stencil: 8*3+1=25 point O(h^6) finite-difference Laplacian
    FFT axes: [np.int64(0), np.int64(1), np.int64(2)]
    FST axes: []
 

Memory estimate:
  Process memory now: 4796.85 MiB
  Calculator: 1078.45 MiB
    Density: 216.58 MiB
      Arrays: 26.81 MiB
      Localized functions: 179.46 MiB
      Mixer: 10.31 MiB
    Hamiltonian: 30.97 MiB
      Arrays: 17.53 MiB
      XC: 0.00 MiB
      Poisson: 0.00 MiB
      vbar: 13.44 MiB
    Wavefunctions: 830.89 MiB
      C [qnM]: 77.37 MiB
      S, T [2 x qmm]: 457.56 MiB
      P [aqMi]: 9.62 MiB
      BasisFunctions: 286.34 MiB
      Eigensolver: 0.00 MiB

Total number of cores used: 1

Number of atoms: 53
Number of atomic orbitals: 1369
Number of bands in calculation: 463
Number of valence electrons: 765
Bands to converge: occupied

... initialized

Initializing position-dependent things.

Density initialized from atomic densities
                                         
                                         
                                         
                                         
                                         
                                         
                  H                      
                Ir    Ir                 
               Iro  Ir    Mo             
                                         
             Mo C      Mo C              
                                         
         Mo         Mo                   
             C         C                 
       Mo       NMo   Ni    Ni           
           Ni    Ni     Ni               
                 Ni    Ni    Ni          
       Ni   NNi   NNi   Ni               
        Ni    Ni    Ni                   
                   Ni    Ni    Ni        
               Ni    Ni    Ni            
           Ni    Ni    Ni                
                Ni    Ni    Ni           
           Ni    Ni     Ni               
       Ni    Ni    Ni                    
                                         
                                         
                                         
                                         

Atomic positions and initial magnetic moments

Positions:
   0 Ni     0.000000    0.000000    8.000000    ( 0.0000,  0.0000,  0.0000)
   1 Ni     2.489016    0.000000    8.000000    ( 0.0000,  0.0000,  0.0000)
   2 Ni     4.978032    0.000000    8.000000    ( 0.0000,  0.0000,  0.0000)
   3 Ni     1.244508    2.155551    8.000000    ( 0.0000,  0.0000,  0.0000)
   4 Ni     3.733524    2.155551    8.000000    ( 0.0000,  0.0000,  0.0000)
   5 Ni     6.222540    2.155551    8.000000    ( 0.0000,  0.0000,  0.0000)
   6 Ni     2.489016    4.311102    8.000000    ( 0.0000,  0.0000,  0.0000)
   7 Ni     4.978032    4.311102    8.000000    ( 0.0000,  0.0000,  0.0000)
   8 Ni     7.467048    4.311102    8.000000    ( 0.0000,  0.0000,  0.0000)
   9 Ni     1.244508    0.718517   10.032273    ( 0.0000,  0.0000,  0.0000)
  10 Ni     3.733524    0.718517   10.032273    ( 0.0000,  0.0000,  0.0000)
  11 Ni     6.222540    0.718517   10.032273    ( 0.0000,  0.0000,  0.0000)
  12 Ni     2.489016    2.874068   10.032273    ( 0.0000,  0.0000,  0.0000)
  13 Ni     4.978032    2.874068   10.032273    ( 0.0000,  0.0000,  0.0000)
  14 Ni     7.467048    2.874068   10.032273    ( 0.0000,  0.0000,  0.0000)
  15 Ni     3.733524    5.029619   10.032273    ( 0.0000,  0.0000,  0.0000)
  16 Ni     6.222540    5.029619   10.032273    ( 0.0000,  0.0000,  0.0000)
  17 Ni     8.711556    5.029619   10.032273    ( 0.0000,  0.0000,  0.0000)
  18 Ni     0.000000    1.437034   12.064546    ( 0.0000,  0.0000,  0.0000)
  19 Ni     2.489016    1.437034   12.064546    ( 0.0000,  0.0000,  0.0000)
  20 Ni     4.978032    1.437034   12.064546    ( 0.0000,  0.0000,  0.0000)
  21 Ni     1.244508    3.592585   12.064546    ( 0.0000,  0.0000,  0.0000)
  22 Ni     3.733524    3.592585   12.064546    ( 0.0000,  0.0000,  0.0000)
  23 Ni     6.222540    3.592585   12.064546    ( 0.0000,  0.0000,  0.0000)
  24 Ni     2.489016    5.748136   12.064546    ( 0.0000,  0.0000,  0.0000)
  25 Ni     4.978032    5.748136   12.064546    ( 0.0000,  0.0000,  0.0000)
  26 Ni     7.467048    5.748136   12.064546    ( 0.0000,  0.0000,  0.0000)
  27 Ni     0.000000    0.000000   14.096819    ( 0.0000,  0.0000,  0.0000)
  28 Ni     2.489016    0.000000   14.096819    ( 0.0000,  0.0000,  0.0000)
  29 Ni     4.978032    0.000000   14.096819    ( 0.0000,  0.0000,  0.0000)
  30 Ni     1.244508    2.155551   14.096819    ( 0.0000,  0.0000,  0.0000)
  31 Ni     3.733524    2.155551   14.096819    ( 0.0000,  0.0000,  0.0000)
  32 Ni     6.222540    2.155551   14.096819    ( 0.0000,  0.0000,  0.0000)
  33 Ni     2.489016    4.311102   14.096819    ( 0.0000,  0.0000,  0.0000)
  34 Ni     4.978032    4.311102   14.096819    ( 0.0000,  0.0000,  0.0000)
  35 Ni     7.467048    4.311102   14.096819    ( 0.0000,  0.0000,  0.0000)
  36 Mo     0.000000    0.000000   16.296819    ( 0.0000,  0.0000,  0.0000)
  37 Mo     2.060000    2.060000   18.356819    ( 0.0000,  0.0000,  0.0000)
  38 C      2.060000    2.060000   16.296819    ( 0.0000,  0.0000,  0.0000)
  39 Mo     0.000000    4.120000   16.296819    ( 0.0000,  0.0000,  0.0000)
  40 Mo     2.060000    6.180000   18.356819    ( 0.0000,  0.0000,  0.0000)
  41 C      2.060000    6.180000   16.296819    ( 0.0000,  0.0000,  0.0000)
  42 Mo     4.120000    0.000000   16.296819    ( 0.0000,  0.0000,  0.0000)
  43 Mo     6.180000    2.060000   18.356819    ( 0.0000,  0.0000,  0.0000)
  44 C      6.180000    2.060000   16.296819    ( 0.0000,  0.0000,  0.0000)
  45 Mo     4.120000    4.120000   16.296819    ( 0.0000,  0.0000,  0.0000)
  46 Mo     6.180000    6.180000   18.356819    ( 0.0000,  0.0000,  0.0000)
  47 C      6.180000    6.180000   16.296819    ( 0.0000,  0.0000,  0.0000)
  48 Ir     2.691821    1.679162   20.156819    ( 0.0000,  0.0000,  0.0000)
  49 Ir     2.691821    4.079162   20.156819    ( 0.0000,  0.0000,  0.0000)
  50 Ir     5.091821    1.679162   20.156819    ( 0.0000,  0.0000,  0.0000)
  51 Ir     5.091821    4.079162   20.156819    ( 0.0000,  0.0000,  0.0000)
  52 H      3.891821    2.879162   21.656819    ( 0.0000,  0.0000,  0.0000)

Unit cell:
           periodic     x           y           z      points  spacing
  1. axis:    yes    7.467048    0.000000    0.000000    32     0.2021
  2. axis:    yes    3.733524    6.466653    0.000000    32     0.2021
  3. axis:    yes    0.000000    0.000000   26.356819   132     0.1997

  Lengths:   7.467048   7.467048  26.356819
  Angles:   90.000000  90.000000  60.000000

Effective grid spacing dv^(1/3) = 0.2112

     iter     time        total  log10-change:
                         energy   eigst   dens
iter:   1 13:44:54 -1623.683275        c
iter:   2 13:47:28 -8016.883587        c -0.81
iter:   3 13:49:46  -716.295751        c -0.37
iter:   4 13:53:05  -454.504118        c -1.10
iter:   5 13:55:57  -444.450446        c -1.46
iter:   6 13:59:01  -430.921420        c -1.53
iter:   7 14:01:46  -447.175164        c -1.56
iter:   8 14:04:20  -617.602553        c -1.57
iter:   9 14:07:21  -448.650745        c -1.14
iter:  10 14:10:19  -452.070576        c -1.53
iter:  11 14:12:47  -445.969835        c -1.59
iter:  12 14:15:26  -431.431915        c -1.57
iter:  13 14:18:59  -422.426335        c -1.66
iter:  14 14:22:06  -428.969002        c -1.76
iter:  15 14:24:33  -482.007510        c -1.74
iter:  16 14:28:03  -423.901536        c -1.35
iter:  17 14:30:26  -424.445345        c -1.78
iter:  18 14:32:48  -429.305118        c -1.75
iter:  19 14:35:26  -457.408440        c -1.78
iter:  20 14:38:22  -428.740302        c -1.60
iter:  21 14:40:49  -450.178740        c -1.85
iter:  22 14:44:05  -438.565537        c -1.60
iter:  23 14:46:37  -441.632685        c -1.68
iter:  24 14:49:23  -423.972670        c -1.75
iter:  25 14:52:22  -419.236906        c -1.99
iter:  26 14:55:29  -416.770274        c -2.13
iter:  27 14:58:17  -416.036817        c -2.17
iter:  28 15:00:55  -418.649096        c -2.27
iter:  29 15:04:01  -415.627400        c -2.00
iter:  30 15:06:40  -415.896162        c -2.45
iter:  31 15:10:22  -416.420194        c -2.33
iter:  32 15:13:46  -415.951999        c -2.36
iter:  33 15:16:12  -415.508290        c -2.40
iter:  34 15:19:04  -415.742436        c -2.49
iter:  35 15:21:37  -415.366420        c -2.38
iter:  36 15:24:04  -415.179789        c -2.60
iter:  37 15:27:02  -415.060878        c -2.75
iter:  38 15:30:01  -415.052918        c -2.82
iter:  39 15:32:58  -415.019732        c -2.89
iter:  40 15:36:03  -415.006152        c -2.91
iter:  41 15:39:25  -415.060753        c -2.98
iter:  42 15:42:12  -414.993022        c -2.88
iter:  43 15:45:53  -415.043803        c -3.09
iter:  44 15:48:57  -415.056327        c -2.77
iter:  45 15:51:38  -415.012774        c -2.90
iter:  46 15:54:40  -414.978542        c -2.94
iter:  47 15:58:02  -414.979595        c -3.16
iter:  48 16:01:15  -414.985108c       c -3.17
iter:  49 16:05:06  -414.981782c       c -3.12
iter:  50 16:08:58  -415.000444        c -3.33
iter:  51 16:12:13  -414.978644        c -3.21
iter:  52 16:15:32  -414.998665        c -3.31
iter:  53 16:18:59  -414.980036        c -2.98
iter:  54 16:21:24  -414.989404        c -3.19
iter:  55 16:25:06  -414.978965        c -3.24
iter:  56 16:28:30  -414.980052        c -3.33
iter:  57 16:31:59  -414.980663c       c -3.30
iter:  58 16:35:11  -414.981898c       c -3.41
iter:  59 16:38:01  -414.980535c       c -3.51
iter:  60 16:42:08  -415.029290        c -3.36
iter:  61 16:45:12  -414.995166        c -3.10
iter:  62 16:48:20  -414.986675        c -3.46
iter:  63 16:51:23  -414.980262        c -3.72
iter:  64 16:54:30  -414.988064        c -3.57
iter:  65 16:57:35  -414.984610        c -3.65
iter:  66 17:00:09  -414.983054c       c -3.97
iter:  67 17:02:41  -414.982970c       c -4.25c

Converged after 67 iterations.

Dipole moment: (-14.566094, 21.356019, 0.055115) |e|*Ang

Energy contributions relative to reference atoms: (reference = -4307916.246572)

Kinetic:       +364.364903
Potential:     -301.221331
External:        +0.000000
XC:            -474.643150
Entropy (-ST):   -3.677715
Local:           -1.644535
SIC:             +0.000000
--------------------------
Free energy:   -416.821828
Extrapolated:  -414.982970

Showing only first 2 kpts
 Kpt  Band  Eigenvalues  Occupancy
  0   380      1.77605    1.06509
  0   381      1.78772    1.00684
  0   382      1.80383    0.92639
  0   383      1.82104    0.84159

  1   380      1.70148    1.41201
  1   381      1.71186    1.36800
  1   382      1.72096    1.32805
  1   383      1.72835    1.29468


Fermi level: 1.78908

No gap
No difference between direct/indirect transitions
Timing:                              incl.     excl.
-----------------------------------------------------------
Basic WFS set positions:             0.001     0.001   0.0% |
Basis functions set positions:       0.193     0.193   0.0% |
LCAO WFS Initialize:                 0.402     0.094   0.0% |
 Hamiltonian:                        0.308     0.000   0.0% |
  Atomic:                            0.172     0.002   0.0% |
   XC Correction:                    0.170     0.170   0.0% |
  Calculate atomic Hamiltonians:     0.027     0.027   0.0% |
  Communicate:                       0.000     0.000   0.0% |
  Hartree integrate/restrict:        0.010     0.010   0.0% |
  Initialize Hamiltonian:            0.001     0.001   0.0% |
  Poisson:                           0.058     0.004   0.0% |
   Communicate from 1D:              0.006     0.006   0.0% |
   Communicate from 2D:              0.008     0.008   0.0% |
   Communicate to 1D:                0.006     0.006   0.0% |
   Communicate to 2D:                0.008     0.008   0.0% |
   FFT 1D:                           0.009     0.009   0.0% |
   FFT 2D:                           0.017     0.017   0.0% |
  XC 3D grid:                        0.037     0.037   0.0% |
  vbar:                              0.004     0.004   0.0% |
P tci:                               6.246     6.246   0.1% |
SCF-cycle:                       11967.620     0.270   0.0% |
 Density:                         5341.070     0.001   0.0% |
  Atomic density matrices:           1.465     1.465   0.0% |
  Mix:                               9.674     9.674   0.1% |
  Multipole moments:                 0.020     0.020   0.0% |
  Normalize:                         0.007     0.007   0.0% |
  Pseudo density:                 5329.903     0.258   0.0% |
   Calculate density matrix:        17.755    17.755   0.1% |
   Construct density:             5311.888  5311.888  44.3% |-----------------|
   Symmetrize density:               0.001     0.001   0.0% |
 Hamiltonian:                       23.031     0.003   0.0% |
  Atomic:                           11.614     0.134   0.0% |
   XC Correction:                   11.480    11.480   0.1% |
  Calculate atomic Hamiltonians:     1.804     1.804   0.0% |
  Communicate:                       0.000     0.000   0.0% |
  Hartree integrate/restrict:        0.669     0.669   0.0% |
  Poisson:                           4.042     0.373   0.0% |
   Communicate from 1D:              0.484     0.484   0.0% |
   Communicate from 2D:              0.430     0.430   0.0% |
   Communicate to 1D:                0.455     0.455   0.0% |
   Communicate to 2D:                0.567     0.567   0.0% |
   FFT 1D:                           0.523     0.523   0.0% |
   FFT 2D:                           1.211     1.211   0.0% |
  XC 3D grid:                        4.004     4.004   0.0% |
  vbar:                              0.895     0.895   0.0% |
 LCAO eigensolver:                6603.249     2.532   0.0% |
  Calculate projections:           124.451   124.451   1.0% |
  DenseAtomicCorrection:           390.747   390.747   3.3% ||
  Distribute overlap matrix:         5.733     5.733   0.0% |
  Orbital Layouts:                4978.741  4978.741  41.5% |----------------|
  Potential matrix:                868.224   868.224   7.2% |--|
  Sum over cells:                  232.823   232.823   1.9% ||
ST tci:                              2.547     2.547   0.0% |
Set symmetry:                        0.000     0.000   0.0% |
TCI: Evaluate splines:               0.696     0.696   0.0% |
mktci:                               0.033     0.033   0.0% |
Other:                               6.759     6.759   0.1% |
-----------------------------------------------------------
Total:                                     11984.496 100.0%

Memory usage: 4.68 GiB
Date: Thu Feb 26 17:02:41 2026
