
  ___ ___ ___ _ _ _  
 |   |   |_  | | | | 
 | | | | | . | | | | 
 |__ |  _|___|_____|  25.7.0
 |___|_|             

User:   mikei@Z790-AORUS-ELITE-AX
Date:   Mon Mar  2 10:59:23 2026
Arch:   x86_64
Pid:    89048
CWD:    /home/mikei/Dokumenty/code/cemea/ocx
Python: 3.10.16
gpaw:   /home/mikei/.pyenv/versions/cemea-env/lib/python3.10/site-packages/gpaw
_gpaw:  /home/mikei/.pyenv/versions/cemea-env/lib/python3.10/site-packages/
        _gpaw.cpython-310-x86_64-linux-gnu.so
ase:    /home/mikei/.pyenv/versions/cemea-env/lib/python3.10/site-packages/ase (version 3.27.0)
numpy:  /home/mikei/.pyenv/versions/cemea-env/lib/python3.10/site-packages/numpy (version 2.2.6)
scipy:  /home/mikei/.pyenv/versions/cemea-env/lib/python3.10/site-packages/scipy (version 1.15.3)
libxc:  2.x.y
units:  Angstrom and eV
cores: 1
OpenMP: False
OMP_NUM_THREADS: 1

Input parameters:
  basis: dzp
  convergence: {density: 0.0001,
                eigenstates: 1e-05,
                energy: 1e-05}
  kpts: [4 4 1]
  mode: lcao

System changes: positions, numbers, cell, pbc, initial_charges, initial_magmoms 

Initialize ...

species:
  Ni:
    name: Nickel
    id: 1802175e8de9ea26d9f4394ec1a7d564
    Z: 28.0
    valence: 16
    core: 12
    charge: 0.0
    file: /home/mikei/.pyenv/versions/cemea-env/lib/python3.10/site-packages/gpaw_data/setups/Ni.LDA.gz
    compensation charges: {type: gauss,
                           rc: 0.36,
                           lmax: 2}
    cutoffs: {filter: 2.14,
              core: 1.98}
    projectors:
      #              energy  rcut
      - 4s(2.00)    -5.858   1.164
      - 3p(6.00)   -71.266   1.207
      - 4p(0.00)    -1.338   1.207
      - 3d(8.00)    -9.141   1.138
      -  s          21.353   1.164
      -  d          18.071   1.138
  
    # LCAO basis set for Ni:
    #   Name: dzp
    #   File: /home/mikei/.pyenv/versions/cemea-env/lib/python3.10/site-packages/gpaw_data/setups/Ni.dzp.basis.gz
    #   Number of radial functions: 9
    #   Number of spherical harmonics: 27
    #     l=0, rc=8.5156 Bohr: 4s-sz confined orbital
    #     l=1, rc=2.9375 Bohr: 3p-sz confined orbital
    #     l=1, rc=12.4062 Bohr: 4p-sz confined orbital
    #     l=2, rc=4.6875 Bohr: 3d-sz confined orbital
    #     l=0, rc=4.9688 Bohr: 4s-dz split-valence wave
    #     l=1, rc=2.0781 Bohr: 3p-dz split-valence wave
    #     l=1, rc=7.5469 Bohr: 4p-dz split-valence wave
    #     l=2, rc=2.9375 Bohr: 3d-dz split-valence wave
    #     l=1, rc=8.5156 Bohr: p-type Gaussian polarization
    #   Number of RI-basis functions 0

  Mo:
    name: Molybdenum
    id: ac24daaf086600a00ce6d19a74574df1
    Z: 42.0
    valence: 14
    core: 28
    charge: 0.0
    file: /home/mikei/.pyenv/versions/cemea-env/lib/python3.10/site-packages/gpaw_data/setups/Mo.LDA.gz
    compensation charges: {type: gauss,
                           rc: 0.38,
                           lmax: 2}
    cutoffs: {filter: 2.16,
              core: 1.42}
    projectors:
      #              energy  rcut
      - 4s(2.00)   -64.384   1.238
      - 5s(1.00)    -4.319   1.238
      - 4p(6.00)   -38.595   1.296
      - 5p(0.00)    -1.161   1.296
      - 4d(5.00)    -3.933   1.296
      -  d          23.278   1.296
  
    # LCAO basis set for Mo:
    #   Name: dzp
    #   File: /home/mikei/.pyenv/versions/cemea-env/lib/python3.10/site-packages/gpaw_data/setups/Mo.dzp.basis.gz
    #   Number of radial functions: 11
    #   Number of spherical harmonics: 29
    #     l=0, rc=3.5469 Bohr: 4s-sz confined orbital
    #     l=0, rc=10.0469 Bohr: 5s-sz confined orbital
    #     l=1, rc=4.0781 Bohr: 4p-sz confined orbital
    #     l=1, rc=14.0938 Bohr: 5p-sz confined orbital
    #     l=2, rc=7.2031 Bohr: 4d-sz confined orbital
    #     l=0, rc=2.1250 Bohr: 4s-dz split-valence wave
    #     l=0, rc=6.1250 Bohr: 5s-dz split-valence wave
    #     l=1, rc=2.5469 Bohr: 4p-dz split-valence wave
    #     l=1, rc=8.7656 Bohr: 5p-dz split-valence wave
    #     l=2, rc=4.2344 Bohr: 4d-dz split-valence wave
    #     l=1, rc=10.0469 Bohr: p-type Gaussian polarization
    #   Number of RI-basis functions 0

  B:
    name: Boron
    id: 02e2e0e88ef95f403158802f6b0f4231
    Z: 5.0
    valence: 3
    core: 2
    charge: 0.0
    file: /home/mikei/.pyenv/versions/cemea-env/lib/python3.10/site-packages/gpaw_data/setups/B.LDA.gz
    compensation charges: {type: gauss,
                           rc: 0.20,
                           lmax: 2}
    cutoffs: {filter: 1.14,
              core: 1.42}
    projectors:
      #              energy  rcut
      - 2s(2.00)    -9.383   0.635
      - 2p(1.00)    -3.714   0.635
      -  s          17.828   0.635
      -  p          23.498   0.635
      -  d           0.000   0.635
  
    # LCAO basis set for B:
    #   Name: dzp
    #   File: /home/mikei/.pyenv/versions/cemea-env/lib/python3.10/site-packages/gpaw_data/setups/B.dzp.basis.gz
    #   Number of radial functions: 5
    #   Number of spherical harmonics: 13
    #     l=0, rc=6.6719 Bohr: 2s-sz confined orbital
    #     l=1, rc=8.2188 Bohr: 2p-sz confined orbital
    #     l=0, rc=3.7500 Bohr: 2s-dz split-valence wave
    #     l=1, rc=4.6094 Bohr: 2p-dz split-valence wave
    #     l=2, rc=8.2188 Bohr: d-type Gaussian polarization
    #   Number of RI-basis functions 0

  Ru:
    name: Ruthenium
    id: ee1c9ca112952e47c1459e90f4850566
    Z: 44.0
    valence: 16
    core: 28
    charge: 0.0
    file: /home/mikei/.pyenv/versions/cemea-env/lib/python3.10/site-packages/gpaw_data/setups/Ru.LDA.gz
    compensation charges: {type: gauss,
                           rc: 0.39,
                           lmax: 2}
    cutoffs: {filter: 2.16,
              core: 1.30}
    projectors:
      #              energy  rcut
      - 4s(2.00)   -76.385   1.281
      - 5s(1.00)    -4.507   1.281
      - 4p(6.00)   -46.536   1.286
      - 5p(0.00)    -1.033   1.286
      - 4d(7.00)    -5.402   1.254
      -  d          21.810   1.254
  
    # LCAO basis set for Ru:
    #   Name: dzp
    #   File: /home/mikei/.pyenv/versions/cemea-env/lib/python3.10/site-packages/gpaw_data/setups/Ru.dzp.basis.gz
    #   Number of radial functions: 11
    #   Number of spherical harmonics: 29
    #     l=0, rc=3.2969 Bohr: 4s-sz confined orbital
    #     l=0, rc=9.6875 Bohr: 5s-sz confined orbital
    #     l=1, rc=3.7656 Bohr: 4p-sz confined orbital
    #     l=1, rc=14.0938 Bohr: 5p-sz confined orbital
    #     l=2, rc=6.3281 Bohr: 4d-sz confined orbital
    #     l=0, rc=2.0781 Bohr: 4s-dz split-valence wave
    #     l=0, rc=5.8281 Bohr: 5s-dz split-valence wave
    #     l=1, rc=2.4219 Bohr: 4p-dz split-valence wave
    #     l=1, rc=8.7031 Bohr: 5p-dz split-valence wave
    #     l=2, rc=3.7500 Bohr: 4d-dz split-valence wave
    #     l=1, rc=9.6875 Bohr: p-type Gaussian polarization
    #   Number of RI-basis functions 0

Reference energy: -2175797.990513  # eV

Spin-paired calculation

Convergence criteria:
 Maximum [total energy] change in last 3 cyles: 1e-05 eV / valence electron
 Maximum integral of absolute [dens]ity change: 0.0001 electrons / valence electron
 Maximum integral of absolute [eigenst]ate change: 1e-05 eV^2 / valence electron
 Maximum number of scf [iter]ations: 333
 (Square brackets indicate name in SCF output, whereas a 'c' in
 the SCF output indicates the quantity has converged.)

Symmetries present (total): 1

  ( 1  0  0)
  ( 0  1  0)
  ( 0  0  1)

16 k-points: 4 x 4 x 1 Monkhorst-Pack grid
8 k-points in the irreducible part of the Brillouin zone
       k-points in crystal coordinates                weights
   0:     0.12500000   -0.37500000    0.00000000          2/16
   1:     0.12500000   -0.12500000    0.00000000          2/16
   2:     0.12500000    0.12500000    0.00000000          2/16
   3:     0.12500000    0.37500000    0.00000000          2/16
   4:     0.37500000   -0.37500000    0.00000000          2/16
   5:     0.37500000   -0.12500000    0.00000000          2/16
   6:     0.37500000    0.12500000    0.00000000          2/16
   7:     0.37500000    0.37500000    0.00000000          2/16

Wave functions: LCAO
  Diagonalizer: Serial LAPACK
  Atomic Correction: dense with blas
  Data-type: complex
 

Occupation numbers: Fermi-Dirac:
  width: 0.1000  # eV
 

Eigensolver
   LCAO using direct dense diagonalizer 

Densities:
  Coarse grid: 36*36*124 grid
  Fine grid: 72*72*248 grid
  Total Charge: 0.000000 

Density mixing:
  Method: separate
  Backend: pulay
  Linear mixing parameter: 0.05
  old densities: 5
  Damping of long wavelength oscillations: 50 

Hamiltonian:
  XC and Coulomb potentials evaluated on a 72*72*248 grid
  Using the LDA Exchange-Correlation functional
  Interpolation: tri-quintic (5. degree polynomial)
  Poisson solver: FastPoissonSolver using
    Stencil: 6*3+1=19 point O(h^6) finite-difference Laplacian
    FFT axes: [np.int64(0), np.int64(1), np.int64(2)]
    FST axes: []
 

Memory estimate:
  Process memory now: 4818.40 MiB
  Calculator: 929.79 MiB
    Density: 209.11 MiB
      Arrays: 31.88 MiB
      Localized functions: 164.98 MiB
      Mixer: 12.26 MiB
    Hamiltonian: 33.19 MiB
      Arrays: 20.84 MiB
      XC: 0.00 MiB
      Poisson: 0.00 MiB
      vbar: 12.35 MiB
    Wavefunctions: 687.48 MiB
      C [qnM]: 59.96 MiB
      S, T [2 x qmm]: 350.39 MiB
      P [aqMi]: 7.39 MiB
      BasisFunctions: 269.74 MiB
      Eigensolver: 0.00 MiB

Total number of cores used: 1

Number of atoms: 46
Number of atomic orbitals: 1198
Number of bands in calculation: 410
Number of valence electrons: 676
Bands to converge: occupied

... initialized

Initializing position-dependent things.

Density initialized from atomic densities
      .-----------------.  
     /|                 |  
    / |                 |  
   /  |                 |  
  /   |                 |  
 *    |                 |  
 |    |                 |  
 |    |                 |  
 |    |                 |  
 |    |                 |  
 |    |                 |  
 |    |Ru    Ru         |  
 |    | B      B        |  
 |    |                 |  
 |    B      B          |  
 | Mo |   Mo            |  
 |  Ni|   Ni    Ni      |  
 Mo   | Mo              |  
 | Ni | NNi   NNi   Ni  |  
 |    Ni    Ni    Ni    |  
 Ni   |Ni    Ni         |  
 |  NNi   NNi   NNi     |  
 | Ni | NNi   NNi   Ni  |  
 |    |                 |  
 Ni   NNi   NNi   Ni    |  
 |   Ni    Ni    Ni     |  
 |    |                 |  
 |    |                 |  
 |    |                 |  
 |    |                 |  
 |    |                 |  
 |    .-----------------.  
 |   /                 /   
 |  /                 /    
 | /                 /     
 |/                 /      
 *-----------------*       

Atomic positions and initial magnetic moments

Positions:
   0 Ni     1.244508    1.244508    8.000000    ( 0.0000,  0.0000,  0.0000)
   1 Ni     3.733524    1.244508    8.000000    ( 0.0000,  0.0000,  0.0000)
   2 Ni     6.222540    1.244508    8.000000    ( 0.0000,  0.0000,  0.0000)
   3 Ni     1.244508    3.733524    8.000000    ( 0.0000,  0.0000,  0.0000)
   4 Ni     3.733524    3.733524    8.000000    ( 0.0000,  0.0000,  0.0000)
   5 Ni     6.222540    3.733524    8.000000    ( 0.0000,  0.0000,  0.0000)
   6 Ni     1.244508    6.222540    8.000000    ( 0.0000,  0.0000,  0.0000)
   7 Ni     3.733524    6.222540    8.000000    ( 0.0000,  0.0000,  0.0000)
   8 Ni     6.222540    6.222540    8.000000    ( 0.0000,  0.0000,  0.0000)
   9 Ni     0.000000    0.000000    9.760000    ( 0.0000,  0.0000,  0.0000)
  10 Ni     2.489016    0.000000    9.760000    ( 0.0000,  0.0000,  0.0000)
  11 Ni     4.978032    0.000000    9.760000    ( 0.0000,  0.0000,  0.0000)
  12 Ni     0.000000    2.489016    9.760000    ( 0.0000,  0.0000,  0.0000)
  13 Ni     2.489016    2.489016    9.760000    ( 0.0000,  0.0000,  0.0000)
  14 Ni     4.978032    2.489016    9.760000    ( 0.0000,  0.0000,  0.0000)
  15 Ni     0.000000    4.978032    9.760000    ( 0.0000,  0.0000,  0.0000)
  16 Ni     2.489016    4.978032    9.760000    ( 0.0000,  0.0000,  0.0000)
  17 Ni     4.978032    4.978032    9.760000    ( 0.0000,  0.0000,  0.0000)
  18 Ni     1.244508    1.244508   11.520000    ( 0.0000,  0.0000,  0.0000)
  19 Ni     3.733524    1.244508   11.520000    ( 0.0000,  0.0000,  0.0000)
  20 Ni     6.222540    1.244508   11.520000    ( 0.0000,  0.0000,  0.0000)
  21 Ni     1.244508    3.733524   11.520000    ( 0.0000,  0.0000,  0.0000)
  22 Ni     3.733524    3.733524   11.520000    ( 0.0000,  0.0000,  0.0000)
  23 Ni     6.222540    3.733524   11.520000    ( 0.0000,  0.0000,  0.0000)
  24 Ni     1.244508    6.222540   11.520000    ( 0.0000,  0.0000,  0.0000)
  25 Ni     3.733524    6.222540   11.520000    ( 0.0000,  0.0000,  0.0000)
  26 Ni     6.222540    6.222540   11.520000    ( 0.0000,  0.0000,  0.0000)
  27 Ni     0.000000    0.000000   13.280000    ( 0.0000,  0.0000,  0.0000)
  28 Ni     2.489016    0.000000   13.280000    ( 0.0000,  0.0000,  0.0000)
  29 Ni     4.978032    0.000000   13.280000    ( 0.0000,  0.0000,  0.0000)
  30 Ni     0.000000    2.489016   13.280000    ( 0.0000,  0.0000,  0.0000)
  31 Ni     2.489016    2.489016   13.280000    ( 0.0000,  0.0000,  0.0000)
  32 Ni     4.978032    2.489016   13.280000    ( 0.0000,  0.0000,  0.0000)
  33 Ni     0.000000    4.978032   13.280000    ( 0.0000,  0.0000,  0.0000)
  34 Ni     2.489016    4.978032   13.280000    ( 0.0000,  0.0000,  0.0000)
  35 Ni     4.978032    4.978032   13.280000    ( 0.0000,  0.0000,  0.0000)
  36 Mo     0.000000    0.000000   15.480000    ( 0.0000,  0.0000,  0.0000)
  37 B      1.525000    1.525000   17.005000    ( 0.0000,  0.0000,  0.0000)
  38 Mo     0.000000    3.050000   15.480000    ( 0.0000,  0.0000,  0.0000)
  39 B      1.525000    4.575000   17.005000    ( 0.0000,  0.0000,  0.0000)
  40 Mo     3.050000    0.000000   15.480000    ( 0.0000,  0.0000,  0.0000)
  41 B      4.575000    1.525000   17.005000    ( 0.0000,  0.0000,  0.0000)
  42 Mo     3.050000    3.050000   15.480000    ( 0.0000,  0.0000,  0.0000)
  43 B      4.575000    4.575000   17.005000    ( 0.0000,  0.0000,  0.0000)
  44 Ru     1.761494    2.961494   18.805000    ( 0.0000,  0.0000,  0.0000)
  45 Ru     4.161494    2.961494   18.805000    ( 0.0000,  0.0000,  0.0000)

Unit cell:
           periodic     x           y           z      points  spacing
  1. axis:    yes    7.467048    0.000000    0.000000    36     0.2074
  2. axis:    yes    0.000000    7.467048    0.000000    36     0.2074
  3. axis:    yes    0.000000    0.000000   25.005000   124     0.2017

  Lengths:   7.467048   7.467048  25.005000
  Angles:   90.000000  90.000000  90.000000

Effective grid spacing dv^(1/3) = 0.2055

     iter     time        total  log10-change:
                         energy   eigst   dens
iter:   1 11:00:57  -780.611433        c
iter:   2 11:03:22 -1706.516951        c -1.06
iter:   3 11:06:21  -626.244579        c -0.60
iter:   4 11:08:45  -445.926607        c -1.10
iter:   5 11:11:04  -394.884318        c -1.36
iter:   6 11:13:34  -393.652762        c -1.49
iter:   7 11:15:47  -370.884853        c -1.42
iter:   8 11:18:47  -378.727656        c -1.38
iter:   9 11:21:18  -350.605029        c -1.57
iter:  10 11:23:40  -343.215468        c -1.70
iter:  11 11:25:55  -368.791398        c -1.74
iter:  12 11:28:05  -344.844000        c -1.63
iter:  13 11:30:43  -342.670892        c -1.81
iter:  14 11:33:55  -345.973072        c -1.88
iter:  15 11:36:06  -341.426801        c -1.81
iter:  16 11:38:31  -346.538298        c -1.88
iter:  17 11:41:21  -343.589504        c -1.85
iter:  18 11:43:33  -340.732015        c -1.87
iter:  19 11:45:29  -345.867239        c -2.02
iter:  20 11:48:16  -343.673483        c -1.88
iter:  21 11:51:14  -344.583667        c -1.90
iter:  22 11:53:22  -339.707265        c -1.93
iter:  23 11:55:51  -339.180871        c -2.15
iter:  24 11:58:23  -339.782202        c -2.11
iter:  25 12:01:15  -339.333914        c -2.15
iter:  26 12:03:23  -339.188594        c -2.19
iter:  27 12:05:43  -338.103979        c -2.24
iter:  28 12:08:39  -338.079953        c -2.49
iter:  29 12:11:33  -338.148378        c -2.40
iter:  30 12:14:43  -337.853684        c -2.43
iter:  31 12:17:50  -337.761120        c -2.61
iter:  32 12:20:23  -337.811785        c -2.80
iter:  33 12:23:14  -338.099114        c -2.79
iter:  34 12:25:41  -337.838981        c -2.46
iter:  35 12:28:32  -337.858208        c -2.77
iter:  36 12:31:25  -337.778631        c -2.66
iter:  37 12:33:52  -337.734128        c -2.91
iter:  38 12:36:39  -337.725263        c -3.00
iter:  39 12:39:12  -337.712049        c -3.04
iter:  40 12:41:53  -337.721954        c -3.03
iter:  41 12:44:37  -337.752520        c -3.02
iter:  42 12:47:01  -337.732975        c -2.96
iter:  43 12:49:35  -337.736546        c -3.11
iter:  44 12:52:07  -337.714224        c -3.10
iter:  45 12:54:49  -337.720589        c -3.05
iter:  46 12:57:10  -337.737381        c -3.17
iter:  47 12:59:42  -337.705058        c -3.02
iter:  48 13:02:01  -337.703595        c -3.33
iter:  49 13:04:20  -337.707508c       c -3.38
iter:  50 13:06:49  -337.713099        c -3.34
iter:  51 13:09:09  -337.709265c       c -3.33
iter:  52 13:11:57  -337.721588        c -3.36
iter:  53 13:14:33  -337.710679        c -2.87
iter:  54 13:17:17  -337.711250        c -3.40
iter:  55 13:19:50  -337.701998        c -3.24
iter:  56 13:22:26  -337.700191        c -3.56
iter:  57 13:25:06  -337.699953c       c -3.61
iter:  58 13:27:47  -337.710044        c -3.57
iter:  59 13:30:18  -337.702460        c -3.42
iter:  60 13:32:47  -337.755497        c -3.58
iter:  61 13:35:03  -337.700226        c -2.96
iter:  62 13:37:45  -337.699893        c -3.72
iter:  63 13:41:02  -337.700034c       c -3.72
iter:  64 13:43:52  -337.699352c       c -3.91
iter:  65 13:46:20  -337.699422c       c -3.95
iter:  66 13:48:37  -337.699945c       c -3.97
iter:  67 13:51:35  -337.700904c       c -3.39
iter:  68 13:54:19  -337.701348c       c -3.90
iter:  69 13:56:59  -337.700400c       c -3.82
iter:  70 13:59:38  -337.698578c       c -3.72
iter:  71 14:02:18  -337.698720c       c -3.99
iter:  72 14:04:35  -337.699760c       c -4.14c

Converged after 72 iterations.

Dipole moment: (-13.542212, -13.130440, 0.726573) |e|*Ang

Energy contributions relative to reference atoms: (reference = -2175797.990513)

Kinetic:        +48.425013
Potential:      -19.640733
External:        +0.000000
XC:            -363.198989
Entropy (-ST):   -3.663553
Local:           -1.453275
SIC:             +0.000000
--------------------------
Free energy:   -339.531537
Extrapolated:  -337.699760

Showing only first 2 kpts
 Kpt  Band  Eigenvalues  Occupancy
  0   336      0.23483    1.27202
  0   337      0.24828    1.20870
  0   338      0.26466    1.12917
  0   339      0.29505    0.97794

  1   336      0.23121    1.28873
  1   337      0.24149    1.24094
  1   338      0.24590    1.22003
  1   339      0.26194    1.14253


Fermi level: 0.29064

No gap
No difference between direct/indirect transitions
Timing:                              incl.     excl.
-----------------------------------------------------------
Basic WFS set positions:             0.000     0.000   0.0% |
Basis functions set positions:       0.172     0.172   0.0% |
LCAO WFS Initialize:                 0.397     0.084   0.0% |
 Hamiltonian:                        0.313     0.000   0.0% |
  Atomic:                            0.154     0.002   0.0% |
   XC Correction:                    0.153     0.153   0.0% |
  Calculate atomic Hamiltonians:     0.023     0.023   0.0% |
  Communicate:                       0.000     0.000   0.0% |
  Hartree integrate/restrict:        0.010     0.010   0.0% |
  Initialize Hamiltonian:            0.001     0.001   0.0% |
  Poisson:                           0.077     0.006   0.0% |
   Communicate from 1D:              0.008     0.008   0.0% |
   Communicate from 2D:              0.007     0.007   0.0% |
   Communicate to 1D:                0.008     0.008   0.0% |
   Communicate to 2D:                0.010     0.010   0.0% |
   FFT 1D:                           0.016     0.016   0.0% |
   FFT 2D:                           0.022     0.022   0.0% |
  XC 3D grid:                        0.045     0.045   0.0% |
  vbar:                              0.004     0.004   0.0% |
P tci:                               4.829     4.829   0.0% |
SCF-cycle:                       11098.134     0.256   0.0% |
 Density:                         4814.429     0.001   0.0% |
  Atomic density matrices:           1.227     1.227   0.0% |
  Mix:                               9.662     9.662   0.1% |
  Multipole moments:                 0.019     0.019   0.0% |
  Normalize:                         0.009     0.009   0.0% |
  Pseudo density:                 4803.512     0.031   0.0% |
   Calculate density matrix:        13.720    13.720   0.1% |
   Construct density:             4789.760  4789.760  43.1% |----------------|
   Symmetrize density:               0.001     0.001   0.0% |
 Hamiltonian:                       24.756     0.003   0.0% |
  Atomic:                           10.827     0.127   0.0% |
   XC Correction:                   10.700    10.700   0.1% |
  Calculate atomic Hamiltonians:     1.699     1.699   0.0% |
  Communicate:                       0.000     0.000   0.0% |
  Hartree integrate/restrict:        0.748     0.748   0.0% |
  Poisson:                           5.595     0.461   0.0% |
   Communicate from 1D:              0.644     0.644   0.0% |
   Communicate from 2D:              0.545     0.545   0.0% |
   Communicate to 1D:                0.490     0.490   0.0% |
   Communicate to 2D:                0.743     0.743   0.0% |
   FFT 1D:                           1.035     1.035   0.0% |
   FFT 2D:                           1.677     1.677   0.0% |
  XC 3D grid:                        4.864     4.864   0.0% |
  vbar:                              1.019     1.019   0.0% |
 LCAO eigensolver:                6258.693     2.061   0.0% |
  Calculate projections:           120.296   120.296   1.1% |
  DenseAtomicCorrection:           302.138   302.138   2.7% ||
  Distribute overlap matrix:         3.679     3.679   0.0% |
  Orbital Layouts:                4978.463  4978.463  44.8% |-----------------|
  Potential matrix:                764.427   764.427   6.9% |--|
  Sum over cells:                   87.630    87.630   0.8% |
ST tci:                              1.802     1.802   0.0% |
Set symmetry:                        0.000     0.000   0.0% |
TCI: Evaluate splines:               0.675     0.675   0.0% |
mktci:                               0.024     0.024   0.0% |
Other:                               6.338     6.338   0.1% |
-----------------------------------------------------------
Total:                                     11112.371 100.0%

Memory usage: 4.71 GiB
Date: Mon Mar  2 14:04:35 2026
