
  ___ ___ ___ _ _ _  
 |   |   |_  | | | | 
 | | | | | . | | | | 
 |__ |  _|___|_____|  25.7.0
 |___|_|             

User:   mikei@Z790-AORUS-ELITE-AX
Date:   Sat Feb 21 11:06:48 2026
Arch:   x86_64
Pid:    89048
CWD:    /home/mikei/Dokumenty/code/cemea/ocx
Python: 3.10.16
gpaw:   /home/mikei/.pyenv/versions/cemea-env/lib/python3.10/site-packages/gpaw
_gpaw:  /home/mikei/.pyenv/versions/cemea-env/lib/python3.10/site-packages/
        _gpaw.cpython-310-x86_64-linux-gnu.so
ase:    /home/mikei/.pyenv/versions/cemea-env/lib/python3.10/site-packages/ase (version 3.27.0)
numpy:  /home/mikei/.pyenv/versions/cemea-env/lib/python3.10/site-packages/numpy (version 2.2.6)
scipy:  /home/mikei/.pyenv/versions/cemea-env/lib/python3.10/site-packages/scipy (version 1.15.3)
libxc:  2.x.y
units:  Angstrom and eV
cores: 1
OpenMP: False
OMP_NUM_THREADS: 1

Input parameters:
  basis: dzp
  convergence: {density: 0.0001,
                eigenstates: 1e-05,
                energy: 1e-05}
  kpts: [4 4 1]
  mode: lcao

System changes: positions, numbers, cell, pbc, initial_charges, initial_magmoms 

Initialize ...

species:
  Mo:
    name: Molybdenum
    id: ac24daaf086600a00ce6d19a74574df1
    Z: 42.0
    valence: 14
    core: 28
    charge: 0.0
    file: /home/mikei/.pyenv/versions/cemea-env/lib/python3.10/site-packages/gpaw_data/setups/Mo.LDA.gz
    compensation charges: {type: gauss,
                           rc: 0.38,
                           lmax: 2}
    cutoffs: {filter: 2.16,
              core: 1.42}
    projectors:
      #              energy  rcut
      - 4s(2.00)   -64.384   1.238
      - 5s(1.00)    -4.319   1.238
      - 4p(6.00)   -38.595   1.296
      - 5p(0.00)    -1.161   1.296
      - 4d(5.00)    -3.933   1.296
      -  d          23.278   1.296
  
    # LCAO basis set for Mo:
    #   Name: dzp
    #   File: /home/mikei/.pyenv/versions/cemea-env/lib/python3.10/site-packages/gpaw_data/setups/Mo.dzp.basis.gz
    #   Number of radial functions: 11
    #   Number of spherical harmonics: 29
    #     l=0, rc=3.5469 Bohr: 4s-sz confined orbital
    #     l=0, rc=10.0469 Bohr: 5s-sz confined orbital
    #     l=1, rc=4.0781 Bohr: 4p-sz confined orbital
    #     l=1, rc=14.0938 Bohr: 5p-sz confined orbital
    #     l=2, rc=7.2031 Bohr: 4d-sz confined orbital
    #     l=0, rc=2.1250 Bohr: 4s-dz split-valence wave
    #     l=0, rc=6.1250 Bohr: 5s-dz split-valence wave
    #     l=1, rc=2.5469 Bohr: 4p-dz split-valence wave
    #     l=1, rc=8.7656 Bohr: 5p-dz split-valence wave
    #     l=2, rc=4.2344 Bohr: 4d-dz split-valence wave
    #     l=1, rc=10.0469 Bohr: p-type Gaussian polarization
    #   Number of RI-basis functions 0

  B:
    name: Boron
    id: 02e2e0e88ef95f403158802f6b0f4231
    Z: 5.0
    valence: 3
    core: 2
    charge: 0.0
    file: /home/mikei/.pyenv/versions/cemea-env/lib/python3.10/site-packages/gpaw_data/setups/B.LDA.gz
    compensation charges: {type: gauss,
                           rc: 0.20,
                           lmax: 2}
    cutoffs: {filter: 1.14,
              core: 1.42}
    projectors:
      #              energy  rcut
      - 2s(2.00)    -9.383   0.635
      - 2p(1.00)    -3.714   0.635
      -  s          17.828   0.635
      -  p          23.498   0.635
      -  d           0.000   0.635
  
    # LCAO basis set for B:
    #   Name: dzp
    #   File: /home/mikei/.pyenv/versions/cemea-env/lib/python3.10/site-packages/gpaw_data/setups/B.dzp.basis.gz
    #   Number of radial functions: 5
    #   Number of spherical harmonics: 13
    #     l=0, rc=6.6719 Bohr: 2s-sz confined orbital
    #     l=1, rc=8.2188 Bohr: 2p-sz confined orbital
    #     l=0, rc=3.7500 Bohr: 2s-dz split-valence wave
    #     l=1, rc=4.6094 Bohr: 2p-dz split-valence wave
    #     l=2, rc=8.2188 Bohr: d-type Gaussian polarization
    #   Number of RI-basis functions 0

Reference energy: -442067.095002  # eV

Spin-paired calculation

Convergence criteria:
 Maximum [total energy] change in last 3 cyles: 1e-05 eV / valence electron
 Maximum integral of absolute [dens]ity change: 0.0001 electrons / valence electron
 Maximum integral of absolute [eigenst]ate change: 1e-05 eV^2 / valence electron
 Maximum number of scf [iter]ations: 333
 (Square brackets indicate name in SCF output, whereas a 'c' in
 the SCF output indicates the quantity has converged.)

Symmetries present (total): 2

  ( 1  0  0)  ( 0  1  0)
  ( 0  1  0)  ( 1  0  0)
  ( 0  0  1)  ( 0  0  1)

16 k-points: 4 x 4 x 1 Monkhorst-Pack grid
6 k-points in the irreducible part of the Brillouin zone
       k-points in crystal coordinates                weights
   0:     0.12500000   -0.12500000    0.00000000          2/16
   1:     0.12500000    0.12500000    0.00000000          2/16
   2:     0.37500000   -0.37500000    0.00000000          2/16
   3:     0.37500000   -0.12500000    0.00000000          4/16
   4:     0.37500000    0.12500000    0.00000000          4/16
   5:     0.37500000    0.37500000    0.00000000          2/16

Wave functions: LCAO
  Diagonalizer: Serial LAPACK
  Atomic Correction: dense with blas
  Data-type: complex
 

Occupation numbers: Fermi-Dirac:
  width: 0.1000  # eV
 

Eigensolver
   LCAO using direct dense diagonalizer 

Densities:
  Coarse grid: 32*32*88 grid
  Fine grid: 64*64*176 grid
  Total Charge: 0.000000 

Density mixing:
  Method: separate
  Backend: pulay
  Linear mixing parameter: 0.05
  old densities: 5
  Damping of long wavelength oscillations: 50 

Hamiltonian:
  XC and Coulomb potentials evaluated on a 64*64*176 grid
  Using the LDA Exchange-Correlation functional
  Interpolation: tri-quintic (5. degree polynomial)
  Poisson solver: FastPoissonSolver using
    Stencil: 6*3+1=19 point O(h^6) finite-difference Laplacian
    FFT axes: [np.int64(0), np.int64(1), np.int64(2)]
    FST axes: []
 

Memory estimate:
  Process memory now: 4595.48 MiB
  Calculator: 122.50 MiB
    Density: 48.97 MiB
      Arrays: 17.88 MiB
      Localized functions: 24.22 MiB
      Mixer: 6.88 MiB
    Hamiltonian: 13.26 MiB
      Arrays: 11.69 MiB
      XC: 0.00 MiB
      Poisson: 0.00 MiB
      vbar: 1.58 MiB
    Wavefunctions: 60.27 MiB
      C [qnM]: 0.61 MiB
      S, T [2 x qmm]: 4.40 MiB
      P [aqMi]: 0.10 MiB
      BasisFunctions: 55.16 MiB
      Eigensolver: 0.00 MiB

Total number of cores used: 1

Number of atoms: 7
Number of atomic orbitals: 155
Number of bands in calculation: 43
Number of valence electrons: 65
Bands to converge: occupied

... initialized

Initializing position-dependent things.

Density initialized from atomic densities
     .--------------.  
    /|              |  
   / |              |  
  /  |              |  
 *   |              |  
 |   |              |  
 |   |              |  
 |   |              |  
 |   |              |  
 |   |              |  
 |   |              |  
 |   |  B      B    |  
 |   |              |  
 |   |       B      |  
 | Mo|    Mo        |  
 |   |              |  
 Mo  |  Mo          |  
 |   |              |  
 |   |              |  
 |   |              |  
 |   |              |  
 |   |              |  
 |   .--------------.  
 |  /              /   
 | /              /    
 |/              /     
 *--------------*      

Atomic positions and initial magnetic moments

Positions:
   0 Mo     0.000000    0.000000    8.000000    ( 0.0000,  0.0000,  0.0000)
   1 Mo     0.000000    3.050000    8.000000    ( 0.0000,  0.0000,  0.0000)
   2 B      1.525000    4.575000    9.525000    ( 0.0000,  0.0000,  0.0000)
   3 Mo     3.050000    0.000000    8.000000    ( 0.0000,  0.0000,  0.0000)
   4 B      4.575000    1.525000    9.525000    ( 0.0000,  0.0000,  0.0000)
   5 Mo     3.050000    3.050000    8.000000    ( 0.0000,  0.0000,  0.0000)
   6 B      4.575000    4.575000    9.525000    ( 0.0000,  0.0000,  0.0000)

Unit cell:
           periodic     x           y           z      points  spacing
  1. axis:    yes    6.100000    0.000000    0.000000    32     0.1906
  2. axis:    yes    0.000000    6.100000    0.000000    32     0.1906
  3. axis:    yes    0.000000    0.000000   17.525000    88     0.1991

  Lengths:   6.100000   6.100000  17.525000
  Angles:   90.000000  90.000000  90.000000

Effective grid spacing dv^(1/3) = 0.1934

     iter     time        total  log10-change:
                         energy   eigst   dens
iter:   1 11:06:53   -52.657733        c
iter:   2 11:07:00   -49.879741        c -0.91
iter:   3 11:07:08   -48.478135        c -1.02
iter:   4 11:07:16   -46.139761        c -1.08
iter:   5 11:07:25   -46.034215        c -1.45
iter:   6 11:07:34   -45.917359        c -1.58
iter:   7 11:07:41   -45.808166        c -1.71
iter:   8 11:07:49   -45.800250        c -2.03
iter:   9 11:07:58   -45.791590        c -2.12
iter:  10 11:08:05   -45.779935        c -2.21
iter:  11 11:08:13   -45.779573        c -2.76
iter:  12 11:08:21   -45.779472c       c -2.88
iter:  13 11:08:30   -45.779452c       c -3.24
iter:  14 11:08:38   -45.779574c       c -3.33
iter:  15 11:08:48   -45.779608c       c -3.69
iter:  16 11:08:57   -45.779679c       c -3.77
iter:  17 11:09:04   -45.779704c       c -3.97
iter:  18 11:09:11   -45.779674c       c -4.15c

Converged after 18 iterations.

Dipole moment: (-3.718940, -3.718940, -0.096282) |e|*Ang

Energy contributions relative to reference atoms: (reference = -442067.095002)

Kinetic:       -105.175473
Potential:      +70.304238
External:        +0.000000
XC:             -11.135084
Entropy (-ST):   -0.416723
Local:           +0.435006
SIC:             +0.000000
--------------------------
Free energy:    -45.988036
Extrapolated:   -45.779674

Showing only first 2 kpts
 Kpt  Band  Eigenvalues  Occupancy
  0    30     -3.10535    1.90297
  0    31     -2.81764    1.04949
  0    32     -2.78619    0.89268
  0    33     -2.37954    0.02725

  1    30     -3.10535    1.90297
  1    31     -2.81764    1.04949
  1    32     -2.78619    0.89268
  1    33     -2.37954    0.02725


Fermi level: -2.80774

No gap
No difference between direct/indirect transitions
Timing:                              incl.     excl.
-----------------------------------------------------------
Basic WFS set positions:             0.000     0.000   0.0% |
Basis functions set positions:       0.044     0.044   0.0% |
LCAO WFS Initialize:                 0.113     0.014   0.0% |
 Hamiltonian:                        0.099     0.000   0.0% |
  Atomic:                            0.030     0.000   0.0% |
   XC Correction:                    0.029     0.029   0.0% |
  Calculate atomic Hamiltonians:     0.003     0.003   0.0% |
  Communicate:                       0.000     0.000   0.0% |
  Hartree integrate/restrict:        0.003     0.003   0.0% |
  Initialize Hamiltonian:            0.000     0.000   0.0% |
  Poisson:                           0.038     0.002   0.0% |
   Communicate from 1D:              0.005     0.005   0.0% |
   Communicate from 2D:              0.005     0.005   0.0% |
   Communicate to 1D:                0.004     0.004   0.0% |
   Communicate to 2D:                0.005     0.005   0.0% |
   FFT 1D:                           0.005     0.005   0.0% |
   FFT 2D:                           0.011     0.011   0.0% |
  XC 3D grid:                        0.024     0.024   0.0% |
  vbar:                              0.001     0.001   0.0% |
P tci:                               0.065     0.065   0.0% |
SCF-cycle:                         142.142     0.028   0.0% |
 Density:                           56.866     0.000   0.0% |
  Atomic density matrices:           0.010     0.010   0.0% |
  Mix:                               1.552     1.552   1.1% |
  Multipole moments:                 0.001     0.001   0.0% |
  Normalize:                         0.001     0.001   0.0% |
  Pseudo density:                   55.302     0.003   0.0% |
   Calculate density matrix:         0.499     0.499   0.3% |
   Construct density:               54.764    54.764  38.3% |--------------|
   Symmetrize density:               0.035     0.035   0.0% |
 Hamiltonian:                        2.526     0.001   0.0% |
  Atomic:                            0.574     0.009   0.0% |
   XC Correction:                    0.565     0.565   0.4% |
  Calculate atomic Hamiltonians:     0.054     0.054   0.0% |
  Communicate:                       0.000     0.000   0.0% |
  Hartree integrate/restrict:        0.053     0.053   0.0% |
  Poisson:                           0.673     0.052   0.0% |
   Communicate from 1D:              0.060     0.060   0.0% |
   Communicate from 2D:              0.075     0.075   0.1% |
   Communicate to 1D:                0.097     0.097   0.1% |
   Communicate to 2D:                0.095     0.095   0.1% |
   FFT 1D:                           0.086     0.086   0.1% |
   FFT 2D:                           0.208     0.208   0.1% |
  XC 3D grid:                        1.003     1.003   0.7% |
  vbar:                              0.168     0.168   0.1% |
 LCAO eigensolver:                  82.722     0.013   0.0% |
  Calculate projections:             0.611     0.611   0.4% |
  DenseAtomicCorrection:             6.194     6.194   4.3% |-|
  Distribute overlap matrix:         0.004     0.004   0.0% |
  Orbital Layouts:                  65.617    65.617  45.9% |-----------------|
  Potential matrix:                  9.309     9.309   6.5% |--|
  Sum over cells:                    0.973     0.973   0.7% |
ST tci:                              0.081     0.081   0.1% |
Set symmetry:                        0.001     0.001   0.0% |
TCI: Evaluate splines:               0.124     0.124   0.1% |
mktci:                               0.003     0.003   0.0% |
Other:                               0.259     0.259   0.2% |
-----------------------------------------------------------
Total:                                       142.832 100.0%

Memory usage: 4.49 GiB
Date: Sat Feb 21 11:09:11 2026
