
  ___ ___ ___ _ _ _  
 |   |   |_  | | | | 
 | | | | | . | | | | 
 |__ |  _|___|_____|  25.7.0
 |___|_|             

User:   ubuntu@third-test
Date:   Wed Feb 18 17:42:47 2026
Arch:   x86_64
Pid:    2718679
CWD:    /mnt/vdd1/work/cemea/fairchem/src/fairchem/applications/ocx/mo_h_adsorption_workflow
Python: 3.10.16
gpaw:   /home/ubuntu/.pyenv/versions/cemea-env/lib/python3.10/site-packages/gpaw
_gpaw:  /home/ubuntu/.pyenv/versions/cemea-env/lib/python3.10/site-packages/
        _gpaw.cpython-310-x86_64-linux-gnu.so
ase:    /home/ubuntu/.pyenv/versions/cemea-env/lib/python3.10/site-packages/ase (version 3.27.0)
numpy:  /home/ubuntu/.pyenv/versions/cemea-env/lib/python3.10/site-packages/numpy (version 2.2.6)
scipy:  /home/ubuntu/.pyenv/versions/cemea-env/lib/python3.10/site-packages/scipy (version 1.15.3)
libxc:  2.x.y
units:  Angstrom and eV
cores: 1
OpenMP: False
OMP_NUM_THREADS: 1

Input parameters:
  basis: dzp
  convergence: {density: 0.0001,
                eigenstates: 1e-05,
                energy: 1e-05}
  kpts: [4 4 1]
  mode: lcao

System changes: positions, numbers, cell, pbc, initial_charges, initial_magmoms 

Initialize ...

species:
  Mo:
    name: Molybdenum
    id: ac24daaf086600a00ce6d19a74574df1
    Z: 42.0
    valence: 14
    core: 28
    charge: 0.0
    file: /home/ubuntu/.pyenv/versions/cemea-env/lib/python3.10/site-packages/gpaw_data/setups/Mo.LDA.gz
    compensation charges: {type: gauss,
                           rc: 0.38,
                           lmax: 2}
    cutoffs: {filter: 2.16,
              core: 1.42}
    projectors:
      #              energy  rcut
      - 4s(2.00)   -64.384   1.238
      - 5s(1.00)    -4.319   1.238
      - 4p(6.00)   -38.595   1.296
      - 5p(0.00)    -1.161   1.296
      - 4d(5.00)    -3.933   1.296
      -  d          23.278   1.296
  
    # LCAO basis set for Mo:
    #   Name: dzp
    #   File: /home/ubuntu/.pyenv/versions/cemea-env/lib/python3.10/site-packages/gpaw_data/setups/Mo.dzp.basis.gz
    #   Number of radial functions: 11
    #   Number of spherical harmonics: 29
    #     l=0, rc=3.5469 Bohr: 4s-sz confined orbital
    #     l=0, rc=10.0469 Bohr: 5s-sz confined orbital
    #     l=1, rc=4.0781 Bohr: 4p-sz confined orbital
    #     l=1, rc=14.0938 Bohr: 5p-sz confined orbital
    #     l=2, rc=7.2031 Bohr: 4d-sz confined orbital
    #     l=0, rc=2.1250 Bohr: 4s-dz split-valence wave
    #     l=0, rc=6.1250 Bohr: 5s-dz split-valence wave
    #     l=1, rc=2.5469 Bohr: 4p-dz split-valence wave
    #     l=1, rc=8.7656 Bohr: 5p-dz split-valence wave
    #     l=2, rc=4.2344 Bohr: 4d-dz split-valence wave
    #     l=1, rc=10.0469 Bohr: p-type Gaussian polarization
    #   Number of RI-basis functions 0

  S:
    name: Sulfur
    id: a5eb49d7597a2879c13719b04c71318f
    Z: 16.0
    valence: 6
    core: 10
    charge: 0.0
    file: /home/ubuntu/.pyenv/versions/cemea-env/lib/python3.10/site-packages/gpaw_data/setups/S.LDA.gz
    compensation charges: {type: gauss,
                           rc: 0.24,
                           lmax: 2}
    cutoffs: {filter: 1.77,
              core: 1.66}
    projectors:
      #              energy  rcut
      - 3s(2.00)   -17.278   0.974
      - 3p(4.00)    -7.106   0.979
      -  s           9.933   0.974
      -  p          20.105   0.979
      -  d           0.000   0.900
  
    # LCAO basis set for S:
    #   Name: dzp
    #   File: /home/ubuntu/.pyenv/versions/cemea-env/lib/python3.10/site-packages/gpaw_data/setups/S.dzp.basis.gz
    #   Number of radial functions: 5
    #   Number of spherical harmonics: 13
    #     l=0, rc=5.5156 Bohr: 3s-sz confined orbital
    #     l=1, rc=6.9375 Bohr: 3p-sz confined orbital
    #     l=0, rc=3.0469 Bohr: 3s-dz split-valence wave
    #     l=1, rc=3.9375 Bohr: 3p-dz split-valence wave
    #     l=2, rc=6.9375 Bohr: d-type Gaussian polarization
    #   Number of RI-basis functions 0

  H:
    name: Hydrogen
    id: 4766778ce56282eaa64abeb28b7c1de3
    Z: 1.0
    valence: 1
    core: 0
    charge: 0.0
    file: /home/ubuntu/.pyenv/versions/cemea-env/lib/python3.10/site-packages/gpaw_data/setups/H.LDA.gz
    compensation charges: {type: gauss,
                           rc: 0.15,
                           lmax: 2}
    cutoffs: {filter: 0.85,
              core: 0.53}
    projectors:
      #              energy  rcut
      - 1s(1.00)    -6.353   0.476
      -  s          20.858   0.476
      -  p           0.000   0.476
  
    # LCAO basis set for H:
    #   Name: dzp
    #   File: /home/ubuntu/.pyenv/versions/cemea-env/lib/python3.10/site-packages/gpaw_data/setups/H.dzp.basis.gz
    #   Number of radial functions: 3
    #   Number of spherical harmonics: 5
    #     l=0, rc=6.4219 Bohr: 1s-sz confined orbital
    #     l=0, rc=3.6094 Bohr: 1s-dz split-valence wave
    #     l=1, rc=6.4219 Bohr: p-type Gaussian polarization
    #   Number of RI-basis functions 0

Reference energy: -515863.468713  # eV

Spin-paired calculation

Convergence criteria:
 Maximum [total energy] change in last 3 cyles: 1e-05 eV / valence electron
 Maximum integral of absolute [dens]ity change: 0.0001 electrons / valence electron
 Maximum integral of absolute [eigenst]ate change: 1e-05 eV^2 / valence electron
 Maximum number of scf [iter]ations: 333
 (Square brackets indicate name in SCF output, whereas a 'c' in
 the SCF output indicates the quantity has converged.)

Symmetries present (total): 1

  ( 1  0  0)
  ( 0  1  0)
  ( 0  0  1)

16 k-points: 4 x 4 x 1 Monkhorst-Pack grid
8 k-points in the irreducible part of the Brillouin zone
       k-points in crystal coordinates                weights
   0:     0.12500000   -0.37500000    0.00000000          2/16
   1:     0.12500000   -0.12500000    0.00000000          2/16
   2:     0.12500000    0.12500000    0.00000000          2/16
   3:     0.12500000    0.37500000    0.00000000          2/16
   4:     0.37500000   -0.37500000    0.00000000          2/16
   5:     0.37500000   -0.12500000    0.00000000          2/16
   6:     0.37500000    0.12500000    0.00000000          2/16
   7:     0.37500000    0.37500000    0.00000000          2/16

Wave functions: LCAO
  Diagonalizer: Serial LAPACK
  Atomic Correction: dense with blas
  Data-type: complex
 

Occupation numbers: Fermi-Dirac:
  width: 0.1000  # eV
 

Eigensolver
   LCAO using direct dense diagonalizer 

Densities:
  Coarse grid: 28*28*96 grid
  Fine grid: 56*56*192 grid
  Total Charge: 0.000000 

Density mixing:
  Method: separate
  Backend: pulay
  Linear mixing parameter: 0.05
  old densities: 5
  Damping of long wavelength oscillations: 50 

Hamiltonian:
  XC and Coulomb potentials evaluated on a 56*56*192 grid
  Using the LDA Exchange-Correlation functional
  Interpolation: tri-quintic (5. degree polynomial)
  Poisson solver: FastPoissonSolver using
    Stencil: 8*3+1=25 point O(h^6) finite-difference Laplacian
    FFT axes: [np.int64(0), np.int64(1), np.int64(2)]
    FST axes: []
 

Memory estimate:
  Process memory now: 1658.73 MiB
  Calculator: 128.12 MiB
    Density: 53.36 MiB
      Arrays: 14.93 MiB
      Localized functions: 32.69 MiB
      Mixer: 5.74 MiB
    Hamiltonian: 12.10 MiB
      Arrays: 9.76 MiB
      XC: 0.00 MiB
      Poisson: 0.00 MiB
      vbar: 2.34 MiB
    Wavefunctions: 62.65 MiB
      C [qnM]: 1.66 MiB
      S, T [2 x qmm]: 10.97 MiB
      P [aqMi]: 0.27 MiB
      BasisFunctions: 49.75 MiB
      Eigensolver: 0.00 MiB

Total number of cores used: 1

Number of atoms: 12
Number of atomic orbitals: 212
Number of bands in calculation: 64
Number of valence electrons: 99
Bands to converge: occupied

... initialized

Initializing position-dependent things.

Density initialized from atomic densities
                                  
                                  
                                  
                                  
                                  
          S     HS                
                                  
                    S             
         Mo     Mo                
             S       S            
           Mo     Mo              
               S       S          
                                  
                                  
                                  
                                  

Atomic positions and initial magnetic moments

Positions:
   0 Mo     0.000000    0.000000    9.475400    ( 0.0000,  0.0000,  0.0000)
   1 S      1.580000    0.912213    8.000000    ( 0.0000,  0.0000,  0.0000)
   2 Mo    -1.580000    2.736640    9.475400    ( 0.0000,  0.0000,  0.0000)
   3 S     -1.580000    4.561067   10.950800    ( 0.0000,  0.0000,  0.0000)
   4 S     -0.000000    3.648854    8.000000    ( 0.0000,  0.0000,  0.0000)
   5 Mo     3.160000    0.000000    9.475400    ( 0.0000,  0.0000,  0.0000)
   6 S      3.160000    1.824427   10.950800    ( 0.0000,  0.0000,  0.0000)
   7 S      4.740000    0.912213    8.000000    ( 0.0000,  0.0000,  0.0000)
   8 Mo     1.580000    2.736640    9.475400    ( 0.0000,  0.0000,  0.0000)
   9 S      1.580000    4.561067   10.950800    ( 0.0000,  0.0000,  0.0000)
  10 S      3.160000    3.648854    8.000000    ( 0.0000,  0.0000,  0.0000)
  11 H      1.436364    2.321998   12.450800    ( 0.0000,  0.0000,  0.0000)

Unit cell:
           periodic     x           y           z      points  spacing
  1. axis:    yes    6.320000    0.000000    0.000000    28     0.1955
  2. axis:    yes   -3.160000    5.473281    0.000000    28     0.1955
  3. axis:    yes    0.000000    0.000000   18.950800    96     0.1974

  Lengths:   6.320000   6.320000  18.950800
  Angles:   90.000000  90.000000 120.000000

Effective grid spacing dv^(1/3) = 0.2057

     iter     time        total  log10-change:
                         energy   eigst   dens
iter:   1 17:43:46   -88.652658        c
iter:   2 17:44:51   -87.049106        c -1.17
iter:   3 17:45:56   -85.949088        c -1.25
iter:   4 17:47:09   -84.860598        c -1.30
iter:   5 17:48:13   -84.633989        c -1.44
iter:   6 17:49:21   -84.447913        c -1.53
iter:   7 17:50:21   -84.421590        c -1.77
iter:   8 17:51:27   -84.332957        c -1.99
iter:   9 17:52:35   -84.325527        c -2.20
iter:  10 17:53:41   -84.311504        c -2.27
iter:  11 17:54:46   -84.308108        c -2.64
iter:  12 17:55:55   -84.307605        c -2.82
iter:  13 17:56:56   -84.306339        c -2.87
iter:  14 17:58:03   -84.305937        c -3.01
iter:  15 17:59:05   -84.305768c       c -3.12
iter:  16 18:00:14   -84.305692c       c -3.52
iter:  17 18:01:20   -84.305667c       c -3.82
iter:  18 18:02:31   -84.305648c       c -3.89
iter:  19 18:03:38   -84.305648c       c -4.07c

Converged after 19 iterations.

Dipole moment: (0.748370, -2.088567, 0.022961) |e|*Ang

Energy contributions relative to reference atoms: (reference = -515863.468713)

Kinetic:        +72.097696
Potential:      -83.290219
External:        +0.000000
XC:             -73.224082
Entropy (-ST):   -0.224111
Local:           +0.223013
SIC:             +0.000000
--------------------------
Free energy:    -84.417703
Extrapolated:   -84.305648

Showing only first 2 kpts
 Kpt  Band  Eigenvalues  Occupancy
  0    47     -2.00146    1.99248
  0    48     -1.75589    1.91577
  0    49     -1.61907    1.70542
  0    50     -1.01165    0.02630

  1    47     -1.97274    1.98999
  1    48     -1.90816    1.98100
  1    49     -1.69556    1.85120
  1    50     -1.17921    0.13290


Fermi level: -1.44346

No gap
No difference between direct/indirect transitions
Timing:                              incl.     excl.
-----------------------------------------------------------
Basic WFS set positions:             0.000     0.000   0.0% |
Basis functions set positions:       0.058     0.058   0.0% |
LCAO WFS Initialize:                 0.214     0.040   0.0% |
 Hamiltonian:                        0.174     0.000   0.0% |
  Atomic:                            0.067     0.001   0.0% |
   XC Correction:                    0.066     0.066   0.0% |
  Calculate atomic Hamiltonians:     0.007     0.007   0.0% |
  Communicate:                       0.000     0.000   0.0% |
  Hartree integrate/restrict:        0.013     0.013   0.0% |
  Initialize Hamiltonian:            0.000     0.000   0.0% |
  Poisson:                           0.055     0.002   0.0% |
   Communicate from 1D:              0.009     0.009   0.0% |
   Communicate from 2D:              0.009     0.009   0.0% |
   Communicate to 1D:                0.008     0.008   0.0% |
   Communicate to 2D:                0.009     0.009   0.0% |
   FFT 1D:                           0.005     0.005   0.0% |
   FFT 2D:                           0.014     0.014   0.0% |
  XC 3D grid:                        0.029     0.029   0.0% |
  vbar:                              0.003     0.003   0.0% |
P tci:                               0.445     0.445   0.0% |
SCF-cycle:                        1248.235     0.025   0.0% |
 Density:                          181.053     0.000   0.0% |
  Atomic density matrices:           0.053     0.053   0.0% |
  Mix:                               5.830     5.830   0.5% |
  Multipole moments:                 0.004     0.004   0.0% |
  Normalize:                         0.002     0.002   0.0% |
  Pseudo density:                  175.163     0.011   0.0% |
   Calculate density matrix:         4.366     4.366   0.3% |
   Construct density:              170.785   170.785  13.7% |----|
   Symmetrize density:               0.001     0.001   0.0% |
 Hamiltonian:                        4.392     0.002   0.0% |
  Atomic:                            1.305     0.018   0.0% |
   XC Correction:                    1.287     1.287   0.1% |
  Calculate atomic Hamiltonians:     0.134     0.134   0.0% |
  Communicate:                       0.000     0.000   0.0% |
  Hartree integrate/restrict:        0.557     0.557   0.0% |
  Poisson:                           1.136     0.039   0.0% |
   Communicate from 1D:              0.160     0.160   0.0% |
   Communicate from 2D:              0.172     0.172   0.0% |
   Communicate to 1D:                0.166     0.166   0.0% |
   Communicate to 2D:                0.171     0.171   0.0% |
   FFT 1D:                           0.099     0.099   0.0% |
   FFT 2D:                           0.328     0.328   0.0% |
  XC 3D grid:                        0.895     0.895   0.1% |
  vbar:                              0.364     0.364   0.0% |
 LCAO eigensolver:                1062.766     0.027   0.0% |
  Calculate projections:             3.010     3.010   0.2% |
  DenseAtomicCorrection:            11.285    11.285   0.9% |
  Distribute overlap matrix:         0.018     0.018   0.0% |
  Orbital Layouts:                1010.932  1010.932  80.9% |-------------------------------|
  Potential matrix:                 33.239    33.239   2.7% ||
  Sum over cells:                    4.255     4.255   0.3% |
ST tci:                              0.294     0.294   0.0% |
Set symmetry:                        0.001     0.001   0.0% |
TCI: Evaluate splines:               0.350     0.350   0.0% |
mktci:                               0.008     0.008   0.0% |
Other:                               0.600     0.600   0.0% |
-----------------------------------------------------------
Total:                                      1250.206 100.0%

Memory usage: 1.62 GiB
Date: Wed Feb 18 18:03:38 2026
