
  ___ ___ ___ _ _ _  
 |   |   |_  | | | | 
 | | | | | . | | | | 
 |__ |  _|___|_____|  25.7.0
 |___|_|             

User:   mikei@Z790-AORUS-ELITE-AX
Date:   Sat Feb 21 13:12:16 2026
Arch:   x86_64
Pid:    89048
CWD:    /home/mikei/Dokumenty/code/cemea/ocx
Python: 3.10.16
gpaw:   /home/mikei/.pyenv/versions/cemea-env/lib/python3.10/site-packages/gpaw
_gpaw:  /home/mikei/.pyenv/versions/cemea-env/lib/python3.10/site-packages/
        _gpaw.cpython-310-x86_64-linux-gnu.so
ase:    /home/mikei/.pyenv/versions/cemea-env/lib/python3.10/site-packages/ase (version 3.27.0)
numpy:  /home/mikei/.pyenv/versions/cemea-env/lib/python3.10/site-packages/numpy (version 2.2.6)
scipy:  /home/mikei/.pyenv/versions/cemea-env/lib/python3.10/site-packages/scipy (version 1.15.3)
libxc:  2.x.y
units:  Angstrom and eV
cores: 1
OpenMP: False
OMP_NUM_THREADS: 1

Input parameters:
  basis: dzp
  convergence: {density: 0.0001,
                eigenstates: 1e-05,
                energy: 1e-05}
  kpts: [4 4 1]
  mode: lcao

System changes: positions, numbers, cell, pbc, initial_charges, initial_magmoms 

Initialize ...

species:
  Mo:
    name: Molybdenum
    id: ac24daaf086600a00ce6d19a74574df1
    Z: 42.0
    valence: 14
    core: 28
    charge: 0.0
    file: /home/mikei/.pyenv/versions/cemea-env/lib/python3.10/site-packages/gpaw_data/setups/Mo.LDA.gz
    compensation charges: {type: gauss,
                           rc: 0.38,
                           lmax: 2}
    cutoffs: {filter: 2.16,
              core: 1.42}
    projectors:
      #              energy  rcut
      - 4s(2.00)   -64.384   1.238
      - 5s(1.00)    -4.319   1.238
      - 4p(6.00)   -38.595   1.296
      - 5p(0.00)    -1.161   1.296
      - 4d(5.00)    -3.933   1.296
      -  d          23.278   1.296
  
    # LCAO basis set for Mo:
    #   Name: dzp
    #   File: /home/mikei/.pyenv/versions/cemea-env/lib/python3.10/site-packages/gpaw_data/setups/Mo.dzp.basis.gz
    #   Number of radial functions: 11
    #   Number of spherical harmonics: 29
    #     l=0, rc=3.5469 Bohr: 4s-sz confined orbital
    #     l=0, rc=10.0469 Bohr: 5s-sz confined orbital
    #     l=1, rc=4.0781 Bohr: 4p-sz confined orbital
    #     l=1, rc=14.0938 Bohr: 5p-sz confined orbital
    #     l=2, rc=7.2031 Bohr: 4d-sz confined orbital
    #     l=0, rc=2.1250 Bohr: 4s-dz split-valence wave
    #     l=0, rc=6.1250 Bohr: 5s-dz split-valence wave
    #     l=1, rc=2.5469 Bohr: 4p-dz split-valence wave
    #     l=1, rc=8.7656 Bohr: 5p-dz split-valence wave
    #     l=2, rc=4.2344 Bohr: 4d-dz split-valence wave
    #     l=1, rc=10.0469 Bohr: p-type Gaussian polarization
    #   Number of RI-basis functions 0

  B:
    name: Boron
    id: 02e2e0e88ef95f403158802f6b0f4231
    Z: 5.0
    valence: 3
    core: 2
    charge: 0.0
    file: /home/mikei/.pyenv/versions/cemea-env/lib/python3.10/site-packages/gpaw_data/setups/B.LDA.gz
    compensation charges: {type: gauss,
                           rc: 0.20,
                           lmax: 2}
    cutoffs: {filter: 1.14,
              core: 1.42}
    projectors:
      #              energy  rcut
      - 2s(2.00)    -9.383   0.635
      - 2p(1.00)    -3.714   0.635
      -  s          17.828   0.635
      -  p          23.498   0.635
      -  d           0.000   0.635
  
    # LCAO basis set for B:
    #   Name: dzp
    #   File: /home/mikei/.pyenv/versions/cemea-env/lib/python3.10/site-packages/gpaw_data/setups/B.dzp.basis.gz
    #   Number of radial functions: 5
    #   Number of spherical harmonics: 13
    #     l=0, rc=6.6719 Bohr: 2s-sz confined orbital
    #     l=1, rc=8.2188 Bohr: 2p-sz confined orbital
    #     l=0, rc=3.7500 Bohr: 2s-dz split-valence wave
    #     l=1, rc=4.6094 Bohr: 2p-dz split-valence wave
    #     l=2, rc=8.2188 Bohr: d-type Gaussian polarization
    #   Number of RI-basis functions 0

Reference energy: -1770918.837146  # eV

Spin-paired calculation

Convergence criteria:
 Maximum [total energy] change in last 3 cyles: 1e-05 eV / valence electron
 Maximum integral of absolute [dens]ity change: 0.0001 electrons / valence electron
 Maximum integral of absolute [eigenst]ate change: 1e-05 eV^2 / valence electron
 Maximum number of scf [iter]ations: 333
 (Square brackets indicate name in SCF output, whereas a 'c' in
 the SCF output indicates the quantity has converged.)

Symmetries present (total): 8

  ( 1  0  0)  ( 1  0  0)  ( 0  1  0)  ( 0  1  0)  ( 0 -1  0)  ( 0 -1  0)
  ( 0  1  0)  ( 0 -1  0)  ( 1  0  0)  (-1  0  0)  ( 1  0  0)  (-1  0  0)
  ( 0  0  1)  ( 0  0  1)  ( 0  0  1)  ( 0  0  1)  ( 0  0  1)  ( 0  0  1)

  (-1  0  0)  (-1  0  0)
  ( 0  1  0)  ( 0 -1  0)
  ( 0  0  1)  ( 0  0  1)

16 k-points: 4 x 4 x 1 Monkhorst-Pack grid
3 k-points in the irreducible part of the Brillouin zone
       k-points in crystal coordinates                weights
   0:     0.12500000    0.12500000    0.00000000          4/16
   1:     0.37500000    0.12500000    0.00000000          8/16
   2:     0.37500000    0.37500000    0.00000000          4/16

Wave functions: LCAO
  Diagonalizer: Serial LAPACK
  Atomic Correction: dense with blas
  Data-type: complex
 

Occupation numbers: Fermi-Dirac:
  width: 0.1000  # eV
 

Eigensolver
   LCAO using direct dense diagonalizer 

Densities:
  Coarse grid: 60*60*108 grid
  Fine grid: 120*120*216 grid
  Total Charge: 0.000000 

Density mixing:
  Method: separate
  Backend: pulay
  Linear mixing parameter: 0.05
  old densities: 5
  Damping of long wavelength oscillations: 50 

Hamiltonian:
  XC and Coulomb potentials evaluated on a 120*120*216 grid
  Using the LDA Exchange-Correlation functional
  Interpolation: tri-quintic (5. degree polynomial)
  Poisson solver: FastPoissonSolver using
    Stencil: 6*3+1=19 point O(h^6) finite-difference Laplacian
    FFT axes: [np.int64(0), np.int64(1), np.int64(2)]
    FST axes: []
 

Memory estimate:
  Process memory now: 4595.48 MiB
  Calculator: 503.28 MiB
    Density: 194.19 MiB
      Arrays: 77.12 MiB
      Localized functions: 87.40 MiB
      Mixer: 29.66 MiB
    Hamiltonian: 56.15 MiB
      Arrays: 50.43 MiB
      XC: 0.00 MiB
      Poisson: 0.00 MiB
      vbar: 5.72 MiB
    Wavefunctions: 252.94 MiB
      C [qnM]: 5.17 MiB
      S, T [2 x qmm]: 41.34 MiB
      P [aqMi]: 0.95 MiB
      BasisFunctions: 205.47 MiB
      Eigensolver: 0.00 MiB

Total number of cores used: 1

Number of atoms: 32
Number of atomic orbitals: 672
Number of bands in calculation: 168
Number of valence electrons: 272
Bands to converge: occupied

... initialized

Initializing position-dependent things.

Density initialized from atomic densities
        .-----------------------------.  
       /|                             |  
      / |                             |  
     /  |                             |  
    /   |                             |  
   /    |                             |  
  /     |                             |  
 *      |                             |  
 |      |                             |  
 |      |                             |  
 |      |                             |  
 |      |                             |  
 |      |                             |  
 |      |  B      B       B      B    |  
 |      |                             |  
 |      |B       B      B       B     |  
 |    MB|     MB     MB      MB       |  
 |   Mo |   Mo     Mo      Mo         |  
 |    B |    B       B      B         |  
 | Mo   | Mo      Mo     Mo           |  
 |      |                             |  
 Mo     Mo      Mo     Mo             |  
 |      |                             |  
 |      |                             |  
 |      |                             |  
 |      |                             |  
 |      .-----------------------------.  
 |     /                             /   
 |    /                             /    
 |   /                             /     
 |  /                             /      
 | /                             /       
 |/                             /        
 *-----------------------------*         

Atomic positions and initial magnetic moments

Positions:
   0 Mo     0.000000    0.000000   10.000000    ( 0.0000,  0.0000,  0.0000)
   1 B      1.525000    1.525000   11.525000    ( 0.0000,  0.0000,  0.0000)
   2 Mo     0.000000    3.050000   10.000000    ( 0.0000,  0.0000,  0.0000)
   3 B      1.525000    4.575000   11.525000    ( 0.0000,  0.0000,  0.0000)
   4 Mo     0.000000    6.100000   10.000000    ( 0.0000,  0.0000,  0.0000)
   5 B      1.525000    7.625000   11.525000    ( 0.0000,  0.0000,  0.0000)
   6 Mo     0.000000    9.150000   10.000000    ( 0.0000,  0.0000,  0.0000)
   7 B      1.525000   10.675000   11.525000    ( 0.0000,  0.0000,  0.0000)
   8 Mo     3.050000    0.000000   10.000000    ( 0.0000,  0.0000,  0.0000)
   9 B      4.575000    1.525000   11.525000    ( 0.0000,  0.0000,  0.0000)
  10 Mo     3.050000    3.050000   10.000000    ( 0.0000,  0.0000,  0.0000)
  11 B      4.575000    4.575000   11.525000    ( 0.0000,  0.0000,  0.0000)
  12 Mo     3.050000    6.100000   10.000000    ( 0.0000,  0.0000,  0.0000)
  13 B      4.575000    7.625000   11.525000    ( 0.0000,  0.0000,  0.0000)
  14 Mo     3.050000    9.150000   10.000000    ( 0.0000,  0.0000,  0.0000)
  15 B      4.575000   10.675000   11.525000    ( 0.0000,  0.0000,  0.0000)
  16 Mo     6.100000    0.000000   10.000000    ( 0.0000,  0.0000,  0.0000)
  17 B      7.625000    1.525000   11.525000    ( 0.0000,  0.0000,  0.0000)
  18 Mo     6.100000    3.050000   10.000000    ( 0.0000,  0.0000,  0.0000)
  19 B      7.625000    4.575000   11.525000    ( 0.0000,  0.0000,  0.0000)
  20 Mo     6.100000    6.100000   10.000000    ( 0.0000,  0.0000,  0.0000)
  21 B      7.625000    7.625000   11.525000    ( 0.0000,  0.0000,  0.0000)
  22 Mo     6.100000    9.150000   10.000000    ( 0.0000,  0.0000,  0.0000)
  23 B      7.625000   10.675000   11.525000    ( 0.0000,  0.0000,  0.0000)
  24 Mo     9.150000    0.000000   10.000000    ( 0.0000,  0.0000,  0.0000)
  25 B     10.675000    1.525000   11.525000    ( 0.0000,  0.0000,  0.0000)
  26 Mo     9.150000    3.050000   10.000000    ( 0.0000,  0.0000,  0.0000)
  27 B     10.675000    4.575000   11.525000    ( 0.0000,  0.0000,  0.0000)
  28 Mo     9.150000    6.100000   10.000000    ( 0.0000,  0.0000,  0.0000)
  29 B     10.675000    7.625000   11.525000    ( 0.0000,  0.0000,  0.0000)
  30 Mo     9.150000    9.150000   10.000000    ( 0.0000,  0.0000,  0.0000)
  31 B     10.675000   10.675000   11.525000    ( 0.0000,  0.0000,  0.0000)

Unit cell:
           periodic     x           y           z      points  spacing
  1. axis:    yes   12.200000    0.000000    0.000000    60     0.2033
  2. axis:    yes    0.000000   12.200000    0.000000    60     0.2033
  3. axis:    yes    0.000000    0.000000   21.525000   108     0.1993

  Lengths:  12.200000  12.200000  21.525000
  Angles:   90.000000  90.000000  90.000000

Effective grid spacing dv^(1/3) = 0.2020

     iter     time        total  log10-change:
                         energy   eigst   dens
iter:   1 13:12:24  -229.122520        c
iter:   2 13:12:35  -219.185903        c -0.94
iter:   3 13:12:45  -215.701702        c -1.03
iter:   4 13:13:02  -205.443037        c -1.07
iter:   5 13:13:15  -204.902302        c -1.47
iter:   6 13:13:27  -204.228359        c -1.52
iter:   7 13:13:41  -204.103412        c -1.79
iter:   8 13:13:52  -203.943922        c -1.87
iter:   9 13:14:07  -203.939319        c -2.70
iter:  10 13:14:20  -203.939015        c -2.75
iter:  11 13:14:35  -203.938628c       c -2.76
iter:  12 13:14:46  -203.938902c       c -2.81
iter:  13 13:15:00  -203.938717c       c -2.81
iter:  14 13:15:17  -203.938359c       c -2.81
iter:  15 13:15:27  -203.938267c       c -2.84
iter:  16 13:15:40  -203.937722c       c -2.85
iter:  17 13:15:52  -203.938129c       c -2.93
iter:  18 13:16:05  -203.936297c       c -3.04
iter:  19 13:16:24  -203.935776c       c -3.17
iter:  20 13:16:35  -203.935617c       c -3.21
iter:  21 13:16:47  -203.935466c       c -3.36
iter:  22 13:16:59  -203.935637c       c -3.34
iter:  23 13:17:12  -203.935733c       c -3.88
iter:  24 13:17:24  -203.935717c       c -3.97
iter:  25 13:17:37  -203.935627c       c -4.01c

Converged after 25 iterations.

Dipole moment: (-16.444057, -16.444057, -0.270674) |e|*Ang

Energy contributions relative to reference atoms: (reference = -1770918.837146)

Kinetic:       -417.859104
Potential:     +278.935794
External:        +0.000000
XC:             -65.785029
Entropy (-ST):   -2.309639
Local:           +1.927532
SIC:             +0.000000
--------------------------
Free energy:   -205.090446
Extrapolated:  -203.935627

Showing only first 2 kpts
 Kpt  Band  Eigenvalues  Occupancy
  0   134     -3.01551    1.21588
  0   135     -2.99861    1.13403
  0   136     -2.99855    1.13372
  0   137     -2.97917    1.03764

  1   134     -3.02817    1.27534
  1   135     -2.99961    1.13894
  1   136     -2.96134    0.94854
  1   137     -2.93465    0.81714


Fermi level: -2.97164

No gap
No difference between direct/indirect transitions
Timing:                              incl.     excl.
-----------------------------------------------------------
Basic WFS set positions:             0.002     0.002   0.0% |
Basis functions set positions:       0.122     0.122   0.0% |
LCAO WFS Initialize:                 0.449     0.047   0.0% |
 Hamiltonian:                        0.402     0.000   0.0% |
  Atomic:                            0.107     0.001   0.0% |
   XC Correction:                    0.106     0.106   0.0% |
  Calculate atomic Hamiltonians:     0.011     0.011   0.0% |
  Communicate:                       0.000     0.000   0.0% |
  Hartree integrate/restrict:        0.014     0.014   0.0% |
  Initialize Hamiltonian:            0.002     0.002   0.0% |
  Poisson:                           0.169     0.012   0.0% |
   Communicate from 1D:              0.014     0.014   0.0% |
   Communicate from 2D:              0.014     0.014   0.0% |
   Communicate to 1D:                0.010     0.010   0.0% |
   Communicate to 2D:                0.014     0.014   0.0% |
   FFT 1D:                           0.019     0.019   0.0% |
   FFT 2D:                           0.086     0.086   0.0% |
  XC 3D grid:                        0.098     0.098   0.0% |
  vbar:                              0.002     0.002   0.0% |
P tci:                               0.484     0.484   0.2% |
SCF-cycle:                         318.465     0.023   0.0% |
 Density:                          157.842     0.000   0.0% |
  Atomic density matrices:           0.062     0.062   0.0% |
  Mix:                               2.815     2.815   0.9% |
  Multipole moments:                 0.004     0.004   0.0% |
  Normalize:                         0.003     0.003   0.0% |
  Pseudo density:                  154.957     0.013   0.0% |
   Calculate density matrix:         0.395     0.395   0.1% |
   Construct density:              153.759   153.759  47.9% |------------------|
   Symmetrize density:               0.790     0.790   0.2% |
 Hamiltonian:                       10.402     0.001   0.0% |
  Atomic:                            2.553     0.027   0.0% |
   XC Correction:                    2.525     2.525   0.8% |
  Calculate atomic Hamiltonians:     0.267     0.267   0.1% |
  Communicate:                       0.000     0.000   0.0% |
  Hartree integrate/restrict:        0.333     0.333   0.1% |
  Poisson:                           4.189     0.323   0.1% |
   Communicate from 1D:              0.349     0.349   0.1% |
   Communicate from 2D:              0.340     0.340   0.1% |
   Communicate to 1D:                0.254     0.254   0.1% |
   Communicate to 2D:                0.339     0.339   0.1% |
   FFT 1D:                           0.488     0.488   0.2% |
   FFT 2D:                           2.096     2.096   0.7% |
  XC 3D grid:                        2.794     2.794   0.9% |
  vbar:                              0.265     0.265   0.1% |
 LCAO eigensolver:                 150.199     0.057   0.0% |
  Calculate projections:             6.163     6.163   1.9% ||
  DenseAtomicCorrection:             7.266     7.266   2.3% ||
  Distribute overlap matrix:         0.070     0.070   0.0% |
  Orbital Layouts:                  77.750    77.750  24.2% |---------|
  Potential matrix:                 57.767    57.767  18.0% |------|
  Sum over cells:                    1.125     1.125   0.4% |
ST tci:                              0.252     0.252   0.1% |
Set symmetry:                        0.001     0.001   0.0% |
TCI: Evaluate splines:               0.123     0.123   0.0% |
mktci:                               0.006     0.006   0.0% |
Other:                               1.296     1.296   0.4% |
-----------------------------------------------------------
Total:                                       321.199 100.0%

Memory usage: 4.49 GiB
Date: Sat Feb 21 13:17:37 2026
