
  ___ ___ ___ _ _ _  
 |   |   |_  | | | | 
 | | | | | . | | | | 
 |__ |  _|___|_____|  25.7.0
 |___|_|             

User:   mikei@Z790-AORUS-ELITE-AX
Date:   Sun Mar  1 19:17:30 2026
Arch:   x86_64
Pid:    89048
CWD:    /home/mikei/Dokumenty/code/cemea/ocx
Python: 3.10.16
gpaw:   /home/mikei/.pyenv/versions/cemea-env/lib/python3.10/site-packages/gpaw
_gpaw:  /home/mikei/.pyenv/versions/cemea-env/lib/python3.10/site-packages/
        _gpaw.cpython-310-x86_64-linux-gnu.so
ase:    /home/mikei/.pyenv/versions/cemea-env/lib/python3.10/site-packages/ase (version 3.27.0)
numpy:  /home/mikei/.pyenv/versions/cemea-env/lib/python3.10/site-packages/numpy (version 2.2.6)
scipy:  /home/mikei/.pyenv/versions/cemea-env/lib/python3.10/site-packages/scipy (version 1.15.3)
libxc:  2.x.y
units:  Angstrom and eV
cores: 1
OpenMP: False
OMP_NUM_THREADS: 1

Input parameters:
  basis: dzp
  convergence: {density: 0.0001,
                eigenstates: 1e-05,
                energy: 1e-05}
  kpts: [4 4 1]
  mode: lcao

System changes: positions, numbers, cell, pbc, initial_charges, initial_magmoms 

Initialize ...

species:
  Ni:
    name: Nickel
    id: 1802175e8de9ea26d9f4394ec1a7d564
    Z: 28.0
    valence: 16
    core: 12
    charge: 0.0
    file: /home/mikei/.pyenv/versions/cemea-env/lib/python3.10/site-packages/gpaw_data/setups/Ni.LDA.gz
    compensation charges: {type: gauss,
                           rc: 0.36,
                           lmax: 2}
    cutoffs: {filter: 2.14,
              core: 1.98}
    projectors:
      #              energy  rcut
      - 4s(2.00)    -5.858   1.164
      - 3p(6.00)   -71.266   1.207
      - 4p(0.00)    -1.338   1.207
      - 3d(8.00)    -9.141   1.138
      -  s          21.353   1.164
      -  d          18.071   1.138
  
    # LCAO basis set for Ni:
    #   Name: dzp
    #   File: /home/mikei/.pyenv/versions/cemea-env/lib/python3.10/site-packages/gpaw_data/setups/Ni.dzp.basis.gz
    #   Number of radial functions: 9
    #   Number of spherical harmonics: 27
    #     l=0, rc=8.5156 Bohr: 4s-sz confined orbital
    #     l=1, rc=2.9375 Bohr: 3p-sz confined orbital
    #     l=1, rc=12.4062 Bohr: 4p-sz confined orbital
    #     l=2, rc=4.6875 Bohr: 3d-sz confined orbital
    #     l=0, rc=4.9688 Bohr: 4s-dz split-valence wave
    #     l=1, rc=2.0781 Bohr: 3p-dz split-valence wave
    #     l=1, rc=7.5469 Bohr: 4p-dz split-valence wave
    #     l=2, rc=2.9375 Bohr: 3d-dz split-valence wave
    #     l=1, rc=8.5156 Bohr: p-type Gaussian polarization
    #   Number of RI-basis functions 0

  Mo:
    name: Molybdenum
    id: ac24daaf086600a00ce6d19a74574df1
    Z: 42.0
    valence: 14
    core: 28
    charge: 0.0
    file: /home/mikei/.pyenv/versions/cemea-env/lib/python3.10/site-packages/gpaw_data/setups/Mo.LDA.gz
    compensation charges: {type: gauss,
                           rc: 0.38,
                           lmax: 2}
    cutoffs: {filter: 2.16,
              core: 1.42}
    projectors:
      #              energy  rcut
      - 4s(2.00)   -64.384   1.238
      - 5s(1.00)    -4.319   1.238
      - 4p(6.00)   -38.595   1.296
      - 5p(0.00)    -1.161   1.296
      - 4d(5.00)    -3.933   1.296
      -  d          23.278   1.296
  
    # LCAO basis set for Mo:
    #   Name: dzp
    #   File: /home/mikei/.pyenv/versions/cemea-env/lib/python3.10/site-packages/gpaw_data/setups/Mo.dzp.basis.gz
    #   Number of radial functions: 11
    #   Number of spherical harmonics: 29
    #     l=0, rc=3.5469 Bohr: 4s-sz confined orbital
    #     l=0, rc=10.0469 Bohr: 5s-sz confined orbital
    #     l=1, rc=4.0781 Bohr: 4p-sz confined orbital
    #     l=1, rc=14.0938 Bohr: 5p-sz confined orbital
    #     l=2, rc=7.2031 Bohr: 4d-sz confined orbital
    #     l=0, rc=2.1250 Bohr: 4s-dz split-valence wave
    #     l=0, rc=6.1250 Bohr: 5s-dz split-valence wave
    #     l=1, rc=2.5469 Bohr: 4p-dz split-valence wave
    #     l=1, rc=8.7656 Bohr: 5p-dz split-valence wave
    #     l=2, rc=4.2344 Bohr: 4d-dz split-valence wave
    #     l=1, rc=10.0469 Bohr: p-type Gaussian polarization
    #   Number of RI-basis functions 0

  B:
    name: Boron
    id: 02e2e0e88ef95f403158802f6b0f4231
    Z: 5.0
    valence: 3
    core: 2
    charge: 0.0
    file: /home/mikei/.pyenv/versions/cemea-env/lib/python3.10/site-packages/gpaw_data/setups/B.LDA.gz
    compensation charges: {type: gauss,
                           rc: 0.20,
                           lmax: 2}
    cutoffs: {filter: 1.14,
              core: 1.42}
    projectors:
      #              energy  rcut
      - 2s(2.00)    -9.383   0.635
      - 2p(1.00)    -3.714   0.635
      -  s          17.828   0.635
      -  p          23.498   0.635
      -  d           0.000   0.635
  
    # LCAO basis set for B:
    #   Name: dzp
    #   File: /home/mikei/.pyenv/versions/cemea-env/lib/python3.10/site-packages/gpaw_data/setups/B.dzp.basis.gz
    #   Number of radial functions: 5
    #   Number of spherical harmonics: 13
    #     l=0, rc=6.6719 Bohr: 2s-sz confined orbital
    #     l=1, rc=8.2188 Bohr: 2p-sz confined orbital
    #     l=0, rc=3.7500 Bohr: 2s-dz split-valence wave
    #     l=1, rc=4.6094 Bohr: 2p-dz split-valence wave
    #     l=2, rc=8.2188 Bohr: d-type Gaussian polarization
    #   Number of RI-basis functions 0

Reference energy: -2012152.352342  # eV

Spin-paired calculation

Convergence criteria:
 Maximum [total energy] change in last 3 cyles: 1e-05 eV / valence electron
 Maximum integral of absolute [dens]ity change: 0.0001 electrons / valence electron
 Maximum integral of absolute [eigenst]ate change: 1e-05 eV^2 / valence electron
 Maximum number of scf [iter]ations: 333
 (Square brackets indicate name in SCF output, whereas a 'c' in
 the SCF output indicates the quantity has converged.)

Symmetries present (total): 1

  ( 1  0  0)
  ( 0  1  0)
  ( 0  0  1)

16 k-points: 4 x 4 x 1 Monkhorst-Pack grid
8 k-points in the irreducible part of the Brillouin zone
       k-points in crystal coordinates                weights
   0:     0.12500000   -0.37500000    0.00000000          2/16
   1:     0.12500000   -0.12500000    0.00000000          2/16
   2:     0.12500000    0.12500000    0.00000000          2/16
   3:     0.12500000    0.37500000    0.00000000          2/16
   4:     0.37500000   -0.37500000    0.00000000          2/16
   5:     0.37500000   -0.12500000    0.00000000          2/16
   6:     0.37500000    0.12500000    0.00000000          2/16
   7:     0.37500000    0.37500000    0.00000000          2/16

Wave functions: LCAO
  Diagonalizer: Serial LAPACK
  Atomic Correction: dense with blas
  Data-type: complex
 

Occupation numbers: Fermi-Dirac:
  width: 0.1000  # eV
 

Eigensolver
   LCAO using direct dense diagonalizer 

Densities:
  Coarse grid: 36*36*124 grid
  Fine grid: 72*72*248 grid
  Total Charge: 0.000000 

Density mixing:
  Method: separate
  Backend: pulay
  Linear mixing parameter: 0.05
  old densities: 5
  Damping of long wavelength oscillations: 50 

Hamiltonian:
  XC and Coulomb potentials evaluated on a 72*72*248 grid
  Using the LDA Exchange-Correlation functional
  Interpolation: tri-quintic (5. degree polynomial)
  Poisson solver: FastPoissonSolver using
    Stencil: 6*3+1=19 point O(h^6) finite-difference Laplacian
    FFT axes: [np.int64(0), np.int64(1), np.int64(2)]
    FST axes: []
 

Memory estimate:
  Process memory now: 4818.40 MiB
  Calculator: 919.53 MiB
    Density: 207.59 MiB
      Arrays: 31.88 MiB
      Localized functions: 163.45 MiB
      Mixer: 12.26 MiB
    Hamiltonian: 33.18 MiB
      Arrays: 20.84 MiB
      XC: 0.00 MiB
      Poisson: 0.00 MiB
      vbar: 12.34 MiB
    Wavefunctions: 678.77 MiB
      C [qnM]: 59.76 MiB
      S, T [2 x qmm]: 348.06 MiB
      P [aqMi]: 7.36 MiB
      BasisFunctions: 263.59 MiB
      Eigensolver: 0.00 MiB

Total number of cores used: 1

Number of atoms: 46
Number of atomic orbitals: 1194
Number of bands in calculation: 410
Number of valence electrons: 676
Bands to converge: occupied

... initialized

Initializing position-dependent things.

Density initialized from atomic densities
      .-----------------.  
     /|                 |  
    / |                 |  
   /  |                 |  
  /   |                 |  
 *    |                 |  
 |    |                 |  
 |    |                 |  
 |    |                 |  
 |    |                 |  
 |    |                 |  
 |    |Ni    Ni         |  
 |    | B      B        |  
 |    |                 |  
 |    B      B          |  
 | Mo |   Mo            |  
 |  Ni|   Ni    Ni      |  
 Mo   | Mo              |  
 | Ni | NNi   NNi   Ni  |  
 |    Ni    Ni    Ni    |  
 Ni   |Ni    Ni         |  
 |  NNi   NNi   NNi     |  
 | Ni | NNi   NNi   Ni  |  
 |    |                 |  
 Ni   NNi   NNi   Ni    |  
 |   Ni    Ni    Ni     |  
 |    |                 |  
 |    |                 |  
 |    |                 |  
 |    |                 |  
 |    |                 |  
 |    .-----------------.  
 |   /                 /   
 |  /                 /    
 | /                 /     
 |/                 /      
 *-----------------*       

Atomic positions and initial magnetic moments

Positions:
   0 Ni     1.244508    1.244508    8.000000    ( 0.0000,  0.0000,  0.0000)
   1 Ni     3.733524    1.244508    8.000000    ( 0.0000,  0.0000,  0.0000)
   2 Ni     6.222540    1.244508    8.000000    ( 0.0000,  0.0000,  0.0000)
   3 Ni     1.244508    3.733524    8.000000    ( 0.0000,  0.0000,  0.0000)
   4 Ni     3.733524    3.733524    8.000000    ( 0.0000,  0.0000,  0.0000)
   5 Ni     6.222540    3.733524    8.000000    ( 0.0000,  0.0000,  0.0000)
   6 Ni     1.244508    6.222540    8.000000    ( 0.0000,  0.0000,  0.0000)
   7 Ni     3.733524    6.222540    8.000000    ( 0.0000,  0.0000,  0.0000)
   8 Ni     6.222540    6.222540    8.000000    ( 0.0000,  0.0000,  0.0000)
   9 Ni     0.000000    0.000000    9.760000    ( 0.0000,  0.0000,  0.0000)
  10 Ni     2.489016    0.000000    9.760000    ( 0.0000,  0.0000,  0.0000)
  11 Ni     4.978032    0.000000    9.760000    ( 0.0000,  0.0000,  0.0000)
  12 Ni     0.000000    2.489016    9.760000    ( 0.0000,  0.0000,  0.0000)
  13 Ni     2.489016    2.489016    9.760000    ( 0.0000,  0.0000,  0.0000)
  14 Ni     4.978032    2.489016    9.760000    ( 0.0000,  0.0000,  0.0000)
  15 Ni     0.000000    4.978032    9.760000    ( 0.0000,  0.0000,  0.0000)
  16 Ni     2.489016    4.978032    9.760000    ( 0.0000,  0.0000,  0.0000)
  17 Ni     4.978032    4.978032    9.760000    ( 0.0000,  0.0000,  0.0000)
  18 Ni     1.244508    1.244508   11.520000    ( 0.0000,  0.0000,  0.0000)
  19 Ni     3.733524    1.244508   11.520000    ( 0.0000,  0.0000,  0.0000)
  20 Ni     6.222540    1.244508   11.520000    ( 0.0000,  0.0000,  0.0000)
  21 Ni     1.244508    3.733524   11.520000    ( 0.0000,  0.0000,  0.0000)
  22 Ni     3.733524    3.733524   11.520000    ( 0.0000,  0.0000,  0.0000)
  23 Ni     6.222540    3.733524   11.520000    ( 0.0000,  0.0000,  0.0000)
  24 Ni     1.244508    6.222540   11.520000    ( 0.0000,  0.0000,  0.0000)
  25 Ni     3.733524    6.222540   11.520000    ( 0.0000,  0.0000,  0.0000)
  26 Ni     6.222540    6.222540   11.520000    ( 0.0000,  0.0000,  0.0000)
  27 Ni     0.000000    0.000000   13.280000    ( 0.0000,  0.0000,  0.0000)
  28 Ni     2.489016    0.000000   13.280000    ( 0.0000,  0.0000,  0.0000)
  29 Ni     4.978032    0.000000   13.280000    ( 0.0000,  0.0000,  0.0000)
  30 Ni     0.000000    2.489016   13.280000    ( 0.0000,  0.0000,  0.0000)
  31 Ni     2.489016    2.489016   13.280000    ( 0.0000,  0.0000,  0.0000)
  32 Ni     4.978032    2.489016   13.280000    ( 0.0000,  0.0000,  0.0000)
  33 Ni     0.000000    4.978032   13.280000    ( 0.0000,  0.0000,  0.0000)
  34 Ni     2.489016    4.978032   13.280000    ( 0.0000,  0.0000,  0.0000)
  35 Ni     4.978032    4.978032   13.280000    ( 0.0000,  0.0000,  0.0000)
  36 Mo     0.000000    0.000000   15.480000    ( 0.0000,  0.0000,  0.0000)
  37 B      1.525000    1.525000   17.005000    ( 0.0000,  0.0000,  0.0000)
  38 Mo     0.000000    3.050000   15.480000    ( 0.0000,  0.0000,  0.0000)
  39 B      1.525000    4.575000   17.005000    ( 0.0000,  0.0000,  0.0000)
  40 Mo     3.050000    0.000000   15.480000    ( 0.0000,  0.0000,  0.0000)
  41 B      4.575000    1.525000   17.005000    ( 0.0000,  0.0000,  0.0000)
  42 Mo     3.050000    3.050000   15.480000    ( 0.0000,  0.0000,  0.0000)
  43 B      4.575000    4.575000   17.005000    ( 0.0000,  0.0000,  0.0000)
  44 Ni     1.761494    2.961494   18.805000    ( 0.0000,  0.0000,  0.0000)
  45 Ni     4.161494    2.961494   18.805000    ( 0.0000,  0.0000,  0.0000)

Unit cell:
           periodic     x           y           z      points  spacing
  1. axis:    yes    7.467048    0.000000    0.000000    36     0.2074
  2. axis:    yes    0.000000    7.467048    0.000000    36     0.2074
  3. axis:    yes    0.000000    0.000000   25.005000   124     0.2017

  Lengths:   7.467048   7.467048  25.005000
  Angles:   90.000000  90.000000  90.000000

Effective grid spacing dv^(1/3) = 0.2055

     iter     time        total  log10-change:
                         energy   eigst   dens
iter:   1 19:18:34  -702.572883        c
iter:   2 19:20:43 -1958.368578        c -1.08
iter:   3 19:23:38  -557.907580        c -0.57
iter:   4 19:26:35  -420.275127        c -1.24
iter:   5 19:28:26  -398.358977        c -1.46
iter:   6 19:30:37  -373.935095        c -1.48
iter:   7 19:32:14  -372.801510        c -1.57
iter:   8 19:34:11  -383.479413        c -1.43
iter:   9 19:36:10  -387.823919        c -1.49
iter:  10 19:38:43  -349.718569        c -1.49
iter:  11 19:41:24  -339.262638        c -1.67
iter:  12 19:43:36  -340.017732        c -1.73
iter:  13 19:45:21  -345.303354        c -1.69
iter:  14 19:47:02  -343.474390        c -1.73
iter:  15 19:48:36  -347.785888        c -1.72
iter:  16 19:51:02  -340.888817        c -1.64
iter:  17 19:52:54  -338.335408        c -1.89
iter:  18 19:55:00  -340.807744        c -1.92
iter:  19 19:56:46  -339.273505        c -1.79
iter:  20 19:59:18  -335.046846        c -1.87
iter:  21 20:01:24  -339.444688        c -1.98
iter:  22 20:03:23  -337.870829        c -1.96
iter:  23 20:05:48  -335.676872        c -1.88
iter:  24 20:07:45  -335.895105        c -2.01
iter:  25 20:09:22  -336.400914        c -2.04
iter:  26 20:11:39  -343.106614        c -2.09
iter:  27 20:13:57  -344.137397        c -1.89
iter:  28 20:16:10  -336.712375        c -1.82
iter:  29 20:18:05  -335.151478        c -2.11
iter:  30 20:20:37  -334.313967        c -2.19
iter:  31 20:23:17  -333.726281        c -2.23
iter:  32 20:25:25  -334.496129        c -2.41
iter:  33 20:27:13  -334.671075        c -2.24
iter:  34 20:29:28  -334.186458        c -2.19
iter:  35 20:32:01  -333.673226        c -2.38
iter:  36 20:33:52  -333.489764        c -2.55
iter:  37 20:35:56  -333.555180        c -2.60
iter:  38 20:38:26  -333.511760        c -2.52
iter:  39 20:40:13  -333.755284        c -2.70
iter:  40 20:42:09  -333.612895        c -2.46
iter:  41 20:44:08  -333.529522        c -2.58
iter:  42 20:46:24  -333.333163        c -2.61
iter:  43 20:48:10  -333.397468        c -2.93
iter:  44 20:50:01  -333.323178        c -2.77
iter:  45 20:52:25  -333.312753        c -2.98
iter:  46 20:55:02  -333.300543        c -3.12
iter:  47 20:57:15  -333.300417        c -3.24
iter:  48 20:58:56  -333.300479c       c -3.26
iter:  49 21:00:54  -333.295708c       c -3.28
iter:  50 21:03:06  -333.474225        c -3.35
iter:  51 21:05:13  -333.292133        c -2.62
iter:  52 21:08:05  -333.290040        c -3.38
iter:  53 21:10:01  -333.289720c       c -3.42
iter:  54 21:12:06  -333.287079c       c -3.51
iter:  55 21:14:09  -333.287261c       c -3.60
iter:  56 21:16:12  -333.290320c       c -3.61
iter:  57 21:17:48  -333.289186c       c -3.50
iter:  58 21:19:57  -333.320071        c -3.71
iter:  59 21:23:29  -333.290067        c -3.14
iter:  60 21:25:12  -333.286110        c -3.60
iter:  61 21:27:31  -333.286665c       c -4.01c

Converged after 61 iterations.

Dipole moment: (-13.424026, -13.112916, 0.578616) |e|*Ang

Energy contributions relative to reference atoms: (reference = -2012152.352342)

Kinetic:        +91.611669
Potential:      -48.910879
External:        +0.000000
XC:            -372.273339
Entropy (-ST):   -3.626033
Local:           -1.901100
SIC:             +0.000000
--------------------------
Free energy:   -335.099681
Extrapolated:  -333.286665

Showing only first 2 kpts
 Kpt  Band  Eigenvalues  Occupancy
  0   336      0.04041    1.26016
  0   337      0.05514    1.19030
  0   338      0.07630    1.08661
  0   339      0.09897    0.97347

  1   336      0.03224    1.29783
  1   337      0.04333    1.24649
  1   338      0.04955    1.21705
  1   339      0.06265    1.15384


Fermi level: 0.09367

No gap
No difference between direct/indirect transitions
Timing:                              incl.     excl.
-----------------------------------------------------------
Basic WFS set positions:             0.000     0.000   0.0% |
Basis functions set positions:       0.166     0.166   0.0% |
LCAO WFS Initialize:                 0.393     0.081   0.0% |
 Hamiltonian:                        0.312     0.000   0.0% |
  Atomic:                            0.149     0.002   0.0% |
   XC Correction:                    0.148     0.148   0.0% |
  Calculate atomic Hamiltonians:     0.024     0.024   0.0% |
  Communicate:                       0.000     0.000   0.0% |
  Hartree integrate/restrict:        0.010     0.010   0.0% |
  Initialize Hamiltonian:            0.001     0.001   0.0% |
  Poisson:                           0.079     0.005   0.0% |
   Communicate from 1D:              0.008     0.008   0.0% |
   Communicate from 2D:              0.007     0.007   0.0% |
   Communicate to 1D:                0.007     0.007   0.0% |
   Communicate to 2D:                0.011     0.011   0.0% |
   FFT 1D:                           0.014     0.014   0.0% |
   FFT 2D:                           0.027     0.027   0.0% |
  XC 3D grid:                        0.044     0.044   0.0% |
  vbar:                              0.004     0.004   0.0% |
P tci:                               4.518     4.518   0.1% |
SCF-cycle:                        7788.852     0.219   0.0% |
 Density:                         3947.620     0.001   0.0% |
  Atomic density matrices:           1.037     1.037   0.0% |
  Mix:                               7.662     7.662   0.1% |
  Multipole moments:                 0.015     0.015   0.0% |
  Normalize:                         0.007     0.007   0.0% |
  Pseudo density:                 3938.897     0.026   0.0% |
   Calculate density matrix:        10.791    10.791   0.1% |
   Construct density:             3928.080  3928.080  50.4% |-------------------|
   Symmetrize density:               0.001     0.001   0.0% |
 Hamiltonian:                       20.317     0.003   0.0% |
  Atomic:                            8.972     0.112   0.0% |
   XC Correction:                    8.859     8.859   0.1% |
  Calculate atomic Hamiltonians:     1.492     1.492   0.0% |
  Communicate:                       0.000     0.000   0.0% |
  Hartree integrate/restrict:        0.631     0.631   0.0% |
  Poisson:                           4.410     0.340   0.0% |
   Communicate from 1D:              0.509     0.509   0.0% |
   Communicate from 2D:              0.446     0.446   0.0% |
   Communicate to 1D:                0.374     0.374   0.0% |
   Communicate to 2D:                0.613     0.613   0.0% |
   FFT 1D:                           0.851     0.851   0.0% |
   FFT 2D:                           1.277     1.277   0.0% |
  XC 3D grid:                        4.109     4.109   0.1% |
  vbar:                              0.701     0.701   0.0% |
 LCAO eigensolver:                3820.697     1.766   0.0% |
  Calculate projections:            99.988    99.988   1.3% ||
  DenseAtomicCorrection:           223.306   223.306   2.9% ||
  Distribute overlap matrix:         2.925     2.925   0.0% |
  Orbital Layouts:                2799.734  2799.734  35.9% |-------------|
  Potential matrix:                620.961   620.961   8.0% |--|
  Sum over cells:                   72.017    72.017   0.9% |
ST tci:                              1.735     1.735   0.0% |
Set symmetry:                        0.000     0.000   0.0% |
TCI: Evaluate splines:               0.323     0.323   0.0% |
mktci:                               0.023     0.023   0.0% |
Other:                               4.905     4.905   0.1% |
-----------------------------------------------------------
Total:                                      7800.916 100.0%

Memory usage: 4.71 GiB
Date: Sun Mar  1 21:27:31 2026
