
  ___ ___ ___ _ _ _  
 |   |   |_  | | | | 
 | | | | | . | | | | 
 |__ |  _|___|_____|  25.7.0
 |___|_|             

User:   mikei@Z790-AORUS-ELITE-AX
Date:   Sun Mar  1 21:27:31 2026
Arch:   x86_64
Pid:    89048
CWD:    /home/mikei/Dokumenty/code/cemea/ocx
Python: 3.10.16
gpaw:   /home/mikei/.pyenv/versions/cemea-env/lib/python3.10/site-packages/gpaw
_gpaw:  /home/mikei/.pyenv/versions/cemea-env/lib/python3.10/site-packages/
        _gpaw.cpython-310-x86_64-linux-gnu.so
ase:    /home/mikei/.pyenv/versions/cemea-env/lib/python3.10/site-packages/ase (version 3.27.0)
numpy:  /home/mikei/.pyenv/versions/cemea-env/lib/python3.10/site-packages/numpy (version 2.2.6)
scipy:  /home/mikei/.pyenv/versions/cemea-env/lib/python3.10/site-packages/scipy (version 1.15.3)
libxc:  2.x.y
units:  Angstrom and eV
cores: 1
OpenMP: False
OMP_NUM_THREADS: 1

Input parameters:
  basis: dzp
  convergence: {density: 0.0001,
                eigenstates: 1e-05,
                energy: 1e-05}
  kpts: [4 4 1]
  mode: lcao

System changes: positions, numbers, cell, pbc, initial_charges, initial_magmoms 

Initialize ...

species:
  Ni:
    name: Nickel
    id: 1802175e8de9ea26d9f4394ec1a7d564
    Z: 28.0
    valence: 16
    core: 12
    charge: 0.0
    file: /home/mikei/.pyenv/versions/cemea-env/lib/python3.10/site-packages/gpaw_data/setups/Ni.LDA.gz
    compensation charges: {type: gauss,
                           rc: 0.36,
                           lmax: 2}
    cutoffs: {filter: 2.14,
              core: 1.98}
    projectors:
      #              energy  rcut
      - 4s(2.00)    -5.858   1.164
      - 3p(6.00)   -71.266   1.207
      - 4p(0.00)    -1.338   1.207
      - 3d(8.00)    -9.141   1.138
      -  s          21.353   1.164
      -  d          18.071   1.138
  
    # LCAO basis set for Ni:
    #   Name: dzp
    #   File: /home/mikei/.pyenv/versions/cemea-env/lib/python3.10/site-packages/gpaw_data/setups/Ni.dzp.basis.gz
    #   Number of radial functions: 9
    #   Number of spherical harmonics: 27
    #     l=0, rc=8.5156 Bohr: 4s-sz confined orbital
    #     l=1, rc=2.9375 Bohr: 3p-sz confined orbital
    #     l=1, rc=12.4062 Bohr: 4p-sz confined orbital
    #     l=2, rc=4.6875 Bohr: 3d-sz confined orbital
    #     l=0, rc=4.9688 Bohr: 4s-dz split-valence wave
    #     l=1, rc=2.0781 Bohr: 3p-dz split-valence wave
    #     l=1, rc=7.5469 Bohr: 4p-dz split-valence wave
    #     l=2, rc=2.9375 Bohr: 3d-dz split-valence wave
    #     l=1, rc=8.5156 Bohr: p-type Gaussian polarization
    #   Number of RI-basis functions 0

  Mo:
    name: Molybdenum
    id: ac24daaf086600a00ce6d19a74574df1
    Z: 42.0
    valence: 14
    core: 28
    charge: 0.0
    file: /home/mikei/.pyenv/versions/cemea-env/lib/python3.10/site-packages/gpaw_data/setups/Mo.LDA.gz
    compensation charges: {type: gauss,
                           rc: 0.38,
                           lmax: 2}
    cutoffs: {filter: 2.16,
              core: 1.42}
    projectors:
      #              energy  rcut
      - 4s(2.00)   -64.384   1.238
      - 5s(1.00)    -4.319   1.238
      - 4p(6.00)   -38.595   1.296
      - 5p(0.00)    -1.161   1.296
      - 4d(5.00)    -3.933   1.296
      -  d          23.278   1.296
  
    # LCAO basis set for Mo:
    #   Name: dzp
    #   File: /home/mikei/.pyenv/versions/cemea-env/lib/python3.10/site-packages/gpaw_data/setups/Mo.dzp.basis.gz
    #   Number of radial functions: 11
    #   Number of spherical harmonics: 29
    #     l=0, rc=3.5469 Bohr: 4s-sz confined orbital
    #     l=0, rc=10.0469 Bohr: 5s-sz confined orbital
    #     l=1, rc=4.0781 Bohr: 4p-sz confined orbital
    #     l=1, rc=14.0938 Bohr: 5p-sz confined orbital
    #     l=2, rc=7.2031 Bohr: 4d-sz confined orbital
    #     l=0, rc=2.1250 Bohr: 4s-dz split-valence wave
    #     l=0, rc=6.1250 Bohr: 5s-dz split-valence wave
    #     l=1, rc=2.5469 Bohr: 4p-dz split-valence wave
    #     l=1, rc=8.7656 Bohr: 5p-dz split-valence wave
    #     l=2, rc=4.2344 Bohr: 4d-dz split-valence wave
    #     l=1, rc=10.0469 Bohr: p-type Gaussian polarization
    #   Number of RI-basis functions 0

  B:
    name: Boron
    id: 02e2e0e88ef95f403158802f6b0f4231
    Z: 5.0
    valence: 3
    core: 2
    charge: 0.0
    file: /home/mikei/.pyenv/versions/cemea-env/lib/python3.10/site-packages/gpaw_data/setups/B.LDA.gz
    compensation charges: {type: gauss,
                           rc: 0.20,
                           lmax: 2}
    cutoffs: {filter: 1.14,
              core: 1.42}
    projectors:
      #              energy  rcut
      - 2s(2.00)    -9.383   0.635
      - 2p(1.00)    -3.714   0.635
      -  s          17.828   0.635
      -  p          23.498   0.635
      -  d           0.000   0.635
  
    # LCAO basis set for B:
    #   Name: dzp
    #   File: /home/mikei/.pyenv/versions/cemea-env/lib/python3.10/site-packages/gpaw_data/setups/B.dzp.basis.gz
    #   Number of radial functions: 5
    #   Number of spherical harmonics: 13
    #     l=0, rc=6.6719 Bohr: 2s-sz confined orbital
    #     l=1, rc=8.2188 Bohr: 2p-sz confined orbital
    #     l=0, rc=3.7500 Bohr: 2s-dz split-valence wave
    #     l=1, rc=4.6094 Bohr: 2p-dz split-valence wave
    #     l=2, rc=8.2188 Bohr: d-type Gaussian polarization
    #   Number of RI-basis functions 0

  H:
    name: Hydrogen
    id: 4766778ce56282eaa64abeb28b7c1de3
    Z: 1.0
    valence: 1
    core: 0
    charge: 0.0
    file: /home/mikei/.pyenv/versions/cemea-env/lib/python3.10/site-packages/gpaw_data/setups/H.LDA.gz
    compensation charges: {type: gauss,
                           rc: 0.15,
                           lmax: 2}
    cutoffs: {filter: 0.85,
              core: 0.53}
    projectors:
      #              energy  rcut
      - 1s(1.00)    -6.353   0.476
      -  s          20.858   0.476
      -  p           0.000   0.476
  
    # LCAO basis set for H:
    #   Name: dzp
    #   File: /home/mikei/.pyenv/versions/cemea-env/lib/python3.10/site-packages/gpaw_data/setups/H.dzp.basis.gz
    #   Number of radial functions: 3
    #   Number of spherical harmonics: 5
    #     l=0, rc=6.4219 Bohr: 1s-sz confined orbital
    #     l=0, rc=3.6094 Bohr: 1s-dz split-valence wave
    #     l=1, rc=6.4219 Bohr: p-type Gaussian polarization
    #   Number of RI-basis functions 0

Reference energy: -2012164.481300  # eV

Spin-paired calculation

Convergence criteria:
 Maximum [total energy] change in last 3 cyles: 1e-05 eV / valence electron
 Maximum integral of absolute [dens]ity change: 0.0001 electrons / valence electron
 Maximum integral of absolute [eigenst]ate change: 1e-05 eV^2 / valence electron
 Maximum number of scf [iter]ations: 333
 (Square brackets indicate name in SCF output, whereas a 'c' in
 the SCF output indicates the quantity has converged.)

Symmetries present (total): 1

  ( 1  0  0)
  ( 0  1  0)
  ( 0  0  1)

16 k-points: 4 x 4 x 1 Monkhorst-Pack grid
8 k-points in the irreducible part of the Brillouin zone
       k-points in crystal coordinates                weights
   0:     0.12500000   -0.37500000    0.00000000          2/16
   1:     0.12500000   -0.12500000    0.00000000          2/16
   2:     0.12500000    0.12500000    0.00000000          2/16
   3:     0.12500000    0.37500000    0.00000000          2/16
   4:     0.37500000   -0.37500000    0.00000000          2/16
   5:     0.37500000   -0.12500000    0.00000000          2/16
   6:     0.37500000    0.12500000    0.00000000          2/16
   7:     0.37500000    0.37500000    0.00000000          2/16

Wave functions: LCAO
  Diagonalizer: Serial LAPACK
  Atomic Correction: dense with blas
  Data-type: complex
 

Occupation numbers: Fermi-Dirac:
  width: 0.1000  # eV
 

Eigensolver
   LCAO using direct dense diagonalizer 

Densities:
  Coarse grid: 36*36*124 grid
  Fine grid: 72*72*248 grid
  Total Charge: 0.000000 

Density mixing:
  Method: separate
  Backend: pulay
  Linear mixing parameter: 0.05
  old densities: 5
  Damping of long wavelength oscillations: 50 

Hamiltonian:
  XC and Coulomb potentials evaluated on a 72*72*248 grid
  Using the LDA Exchange-Correlation functional
  Interpolation: tri-quintic (5. degree polynomial)
  Poisson solver: FastPoissonSolver using
    Stencil: 6*3+1=19 point O(h^6) finite-difference Laplacian
    FFT axes: [np.int64(0), np.int64(1), np.int64(2)]
    FST axes: []
 

Memory estimate:
  Process memory now: 4818.40 MiB
  Calculator: 923.78 MiB
    Density: 207.82 MiB
      Arrays: 31.88 MiB
      Localized functions: 163.68 MiB
      Mixer: 12.26 MiB
    Hamiltonian: 33.20 MiB
      Arrays: 20.84 MiB
      XC: 0.00 MiB
      Poisson: 0.00 MiB
      vbar: 12.35 MiB
    Wavefunctions: 682.76 MiB
      C [qnM]: 60.15 MiB
      S, T [2 x qmm]: 350.98 MiB
      P [aqMi]: 7.44 MiB
      BasisFunctions: 264.20 MiB
      Eigensolver: 0.00 MiB

Total number of cores used: 1

Number of atoms: 47
Number of atomic orbitals: 1199
Number of bands in calculation: 411
Number of valence electrons: 677
Bands to converge: occupied

... initialized

Initializing position-dependent things.

Density initialized from atomic densities
      .-----------------.  
     /|                 |  
    / |                 |  
   /  |                 |  
  /   |                 |  
 *    |                 |  
 |    |                 |  
 |    |                 |  
 |    |                 |  
 |    |   H             |  
 |    |                 |  
 |    |Ni    Ni         |  
 |    | B      B        |  
 |    |                 |  
 |    B      B          |  
 | Mo |   Mo            |  
 |  Ni|   Ni    Ni      |  
 Mo   | Mo              |  
 | Ni | NNi   NNi   Ni  |  
 |    Ni    Ni    Ni    |  
 Ni   |Ni    Ni         |  
 |  NNi   NNi   NNi     |  
 | Ni | NNi   NNi   Ni  |  
 |    |                 |  
 Ni   NNi   NNi   Ni    |  
 |   Ni    Ni    Ni     |  
 |    |                 |  
 |    |                 |  
 |    |                 |  
 |    |                 |  
 |    |                 |  
 |    .-----------------.  
 |   /                 /   
 |  /                 /    
 | /                 /     
 |/                 /      
 *-----------------*       

Atomic positions and initial magnetic moments

Positions:
   0 Ni     1.244508    1.244508    8.000000    ( 0.0000,  0.0000,  0.0000)
   1 Ni     3.733524    1.244508    8.000000    ( 0.0000,  0.0000,  0.0000)
   2 Ni     6.222540    1.244508    8.000000    ( 0.0000,  0.0000,  0.0000)
   3 Ni     1.244508    3.733524    8.000000    ( 0.0000,  0.0000,  0.0000)
   4 Ni     3.733524    3.733524    8.000000    ( 0.0000,  0.0000,  0.0000)
   5 Ni     6.222540    3.733524    8.000000    ( 0.0000,  0.0000,  0.0000)
   6 Ni     1.244508    6.222540    8.000000    ( 0.0000,  0.0000,  0.0000)
   7 Ni     3.733524    6.222540    8.000000    ( 0.0000,  0.0000,  0.0000)
   8 Ni     6.222540    6.222540    8.000000    ( 0.0000,  0.0000,  0.0000)
   9 Ni     0.000000    0.000000    9.760000    ( 0.0000,  0.0000,  0.0000)
  10 Ni     2.489016    0.000000    9.760000    ( 0.0000,  0.0000,  0.0000)
  11 Ni     4.978032    0.000000    9.760000    ( 0.0000,  0.0000,  0.0000)
  12 Ni     0.000000    2.489016    9.760000    ( 0.0000,  0.0000,  0.0000)
  13 Ni     2.489016    2.489016    9.760000    ( 0.0000,  0.0000,  0.0000)
  14 Ni     4.978032    2.489016    9.760000    ( 0.0000,  0.0000,  0.0000)
  15 Ni     0.000000    4.978032    9.760000    ( 0.0000,  0.0000,  0.0000)
  16 Ni     2.489016    4.978032    9.760000    ( 0.0000,  0.0000,  0.0000)
  17 Ni     4.978032    4.978032    9.760000    ( 0.0000,  0.0000,  0.0000)
  18 Ni     1.244508    1.244508   11.520000    ( 0.0000,  0.0000,  0.0000)
  19 Ni     3.733524    1.244508   11.520000    ( 0.0000,  0.0000,  0.0000)
  20 Ni     6.222540    1.244508   11.520000    ( 0.0000,  0.0000,  0.0000)
  21 Ni     1.244508    3.733524   11.520000    ( 0.0000,  0.0000,  0.0000)
  22 Ni     3.733524    3.733524   11.520000    ( 0.0000,  0.0000,  0.0000)
  23 Ni     6.222540    3.733524   11.520000    ( 0.0000,  0.0000,  0.0000)
  24 Ni     1.244508    6.222540   11.520000    ( 0.0000,  0.0000,  0.0000)
  25 Ni     3.733524    6.222540   11.520000    ( 0.0000,  0.0000,  0.0000)
  26 Ni     6.222540    6.222540   11.520000    ( 0.0000,  0.0000,  0.0000)
  27 Ni     0.000000    0.000000   13.280000    ( 0.0000,  0.0000,  0.0000)
  28 Ni     2.489016    0.000000   13.280000    ( 0.0000,  0.0000,  0.0000)
  29 Ni     4.978032    0.000000   13.280000    ( 0.0000,  0.0000,  0.0000)
  30 Ni     0.000000    2.489016   13.280000    ( 0.0000,  0.0000,  0.0000)
  31 Ni     2.489016    2.489016   13.280000    ( 0.0000,  0.0000,  0.0000)
  32 Ni     4.978032    2.489016   13.280000    ( 0.0000,  0.0000,  0.0000)
  33 Ni     0.000000    4.978032   13.280000    ( 0.0000,  0.0000,  0.0000)
  34 Ni     2.489016    4.978032   13.280000    ( 0.0000,  0.0000,  0.0000)
  35 Ni     4.978032    4.978032   13.280000    ( 0.0000,  0.0000,  0.0000)
  36 Mo     0.000000    0.000000   15.480000    ( 0.0000,  0.0000,  0.0000)
  37 B      1.525000    1.525000   17.005000    ( 0.0000,  0.0000,  0.0000)
  38 Mo     0.000000    3.050000   15.480000    ( 0.0000,  0.0000,  0.0000)
  39 B      1.525000    4.575000   17.005000    ( 0.0000,  0.0000,  0.0000)
  40 Mo     3.050000    0.000000   15.480000    ( 0.0000,  0.0000,  0.0000)
  41 B      4.575000    1.525000   17.005000    ( 0.0000,  0.0000,  0.0000)
  42 Mo     3.050000    3.050000   15.480000    ( 0.0000,  0.0000,  0.0000)
  43 B      4.575000    4.575000   17.005000    ( 0.0000,  0.0000,  0.0000)
  44 Ni     1.761494    2.961494   18.805000    ( 0.0000,  0.0000,  0.0000)
  45 Ni     4.161494    2.961494   18.805000    ( 0.0000,  0.0000,  0.0000)
  46 H      2.961494    2.961494   20.305000    ( 0.0000,  0.0000,  0.0000)

Unit cell:
           periodic     x           y           z      points  spacing
  1. axis:    yes    7.467048    0.000000    0.000000    36     0.2074
  2. axis:    yes    0.000000    7.467048    0.000000    36     0.2074
  3. axis:    yes    0.000000    0.000000   25.005000   124     0.2017

  Lengths:   7.467048   7.467048  25.005000
  Angles:   90.000000  90.000000  90.000000

Effective grid spacing dv^(1/3) = 0.2055

     iter     time        total  log10-change:
                         energy   eigst   dens
iter:   1 21:29:27  -719.093310        c
iter:   2 21:31:45 -2011.954360        c -1.07
iter:   3 21:34:10  -565.188757        c -0.56
iter:   4 21:36:04  -424.976970        c -1.23
iter:   5 21:38:17  -402.117441        c -1.46
iter:   6 21:40:34  -378.557656        c -1.48
iter:   7 21:42:26  -386.011614        c -1.57
iter:   8 21:44:09  -388.771989        c -1.39
iter:   9 21:46:11  -385.898043        c -1.48
iter:  10 21:48:13  -352.998536        c -1.52
iter:  11 21:50:51  -344.638433        c -1.69
iter:  12 21:52:40  -340.682974        c -1.72
iter:  13 21:55:01  -339.464749        c -1.75
iter:  14 21:57:21  -343.567529        c -1.80
iter:  15 21:59:18  -356.315891        c -1.82
iter:  16 22:01:14  -344.291427        c -1.59
iter:  17 22:03:15  -341.948180        c -1.86
iter:  18 22:05:07  -358.936060        c -1.96
iter:  19 22:07:01  -352.407296        c -1.65
iter:  20 22:09:28  -343.651544        c -1.79
iter:  21 22:11:25  -346.955849        c -1.88
iter:  22 22:13:46  -340.625707        c -1.86
iter:  23 22:16:01  -339.842736        c -2.02
iter:  24 22:18:04  -339.300277        c -2.06
iter:  25 22:19:45  -349.773557        c -2.13
iter:  26 22:22:01  -338.707823        c -1.72
iter:  27 22:23:59  -351.333033        c -2.18
iter:  28 22:25:57  -340.688525        c -1.74
iter:  29 22:28:17  -338.403016        c -2.04
iter:  30 22:30:42  -338.673691        c -2.16
iter:  31 22:32:35  -338.074216        c -2.16
iter:  32 22:34:25  -339.461945        c -2.23
iter:  33 22:36:35  -338.636261        c -2.06
iter:  34 22:38:28  -340.373805        c -2.19
iter:  35 22:40:56  -340.109848        c -2.08
iter:  36 22:42:53  -338.391813        c -2.07
iter:  37 22:45:13  -337.598511        c -2.32
iter:  38 22:47:51  -337.755922        c -2.58
iter:  39 22:49:47  -337.424415        c -2.44
iter:  40 22:52:11  -337.393847        c -2.68
iter:  41 22:54:36  -337.872260        c -2.81
iter:  42 22:56:52  -337.556193        c -2.35
iter:  43 22:59:46  -337.405131        c -2.53
iter:  44 23:01:46  -337.326342        c -2.80
iter:  45 23:04:03  -337.340177        c -3.03
iter:  46 23:06:40  -337.306731        c -3.00
iter:  47 23:08:34  -337.302059        c -3.14
iter:  48 23:10:38  -337.331401        c -3.19
iter:  49 23:12:50  -337.393800        c -2.95
iter:  50 23:15:03  -337.301429        c -2.77
iter:  51 23:17:06  -337.295649        c -3.21
iter:  52 23:19:06  -337.294145        c -3.28
iter:  53 23:21:29  -337.291350c       c -3.32
iter:  54 23:23:41  -337.290768c       c -3.37
iter:  55 23:25:24  -337.321894        c -3.30
iter:  56 23:27:24  -337.299057        c -3.03
iter:  57 23:29:52  -337.289416        c -3.23
iter:  58 23:31:25  -337.289134        c -3.46
iter:  59 23:33:25  -337.291857c       c -3.43
iter:  60 23:35:14  -337.291562c       c -3.41
iter:  61 23:37:37  -337.300531        c -3.43
iter:  62 23:40:06  -337.294995        c -3.07
iter:  63 23:41:59  -337.287287        c -3.33
iter:  64 23:44:31  -337.288677        c -3.58
iter:  65 23:46:54  -337.287178c       c -3.50
iter:  66 23:48:42  -337.286297c       c -3.60
iter:  67 23:51:06  -337.291234c       c -3.63
iter:  68 23:53:30  -337.287764c       c -3.47
iter:  69 23:55:22  -337.285644c       c -3.37
iter:  70 23:57:06  -337.293198        c -3.60
iter:  71 23:59:43  -337.285223        c -3.39
iter:  72 00:02:02  -337.285426        c -3.68
iter:  73 00:03:51  -337.284102c       c -3.69
iter:  74 00:06:12  -337.286746c       c -3.79
iter:  75 00:08:06  -337.285451c       c -3.70
iter:  76 00:09:35  -337.287514c       c -3.80
iter:  77 00:11:06  -337.285024c       c -3.39
iter:  78 00:12:56  -337.286097c       c -3.83
iter:  79 00:15:09  -337.284866c       c -3.75
iter:  80 00:17:23  -337.284198c       c -3.81
iter:  81 00:19:43  -337.283789c       c -3.94
iter:  82 00:21:56  -337.285376c       c -3.90
iter:  83 00:24:17  -337.283969c       c -3.90
iter:  84 00:26:22  -337.284264c       c -4.04c

Converged after 84 iterations.

Dipole moment: (-13.372294, -13.075759, 0.067101) |e|*Ang

Energy contributions relative to reference atoms: (reference = -2012164.481300)

Kinetic:        +89.164062
Potential:      -49.430952
External:        +0.000000
XC:            -373.456186
Entropy (-ST):   -3.626399
Local:           -1.747989
SIC:             +0.000000
--------------------------
Free energy:   -339.097464
Extrapolated:  -337.284264

Showing only first 2 kpts
 Kpt  Band  Eigenvalues  Occupancy
  0   336     -0.14669    1.30073
  0   337     -0.13545    1.24876
  0   338     -0.12084    1.17910
  0   339     -0.08493    1.00151

  1   336     -0.15879    1.35468
  1   337     -0.14288    1.28331
  1   338     -0.13357    1.23996
  1   339     -0.12782    1.21266


Fermi level: -0.08463

No gap
No difference between direct/indirect transitions
Timing:                              incl.     excl.
-----------------------------------------------------------
Basic WFS set positions:             0.000     0.000   0.0% |
Basis functions set positions:       0.169     0.169   0.0% |
LCAO WFS Initialize:                 0.396     0.083   0.0% |
 Hamiltonian:                        0.313     0.000   0.0% |
  Atomic:                            0.152     0.002   0.0% |
   XC Correction:                    0.150     0.150   0.0% |
  Calculate atomic Hamiltonians:     0.024     0.024   0.0% |
  Communicate:                       0.000     0.000   0.0% |
  Hartree integrate/restrict:        0.009     0.009   0.0% |
  Initialize Hamiltonian:            0.001     0.001   0.0% |
  Poisson:                           0.079     0.006   0.0% |
   Communicate from 1D:              0.008     0.008   0.0% |
   Communicate from 2D:              0.007     0.007   0.0% |
   Communicate to 1D:                0.007     0.007   0.0% |
   Communicate to 2D:                0.013     0.013   0.0% |
   FFT 1D:                           0.015     0.015   0.0% |
   FFT 2D:                           0.022     0.022   0.0% |
  XC 3D grid:                        0.044     0.044   0.0% |
  vbar:                              0.004     0.004   0.0% |
P tci:                               4.578     4.578   0.0% |
SCF-cycle:                       10718.807     0.267   0.0% |
 Density:                         5453.357     0.001   0.0% |
  Atomic density matrices:           1.425     1.425   0.0% |
  Mix:                              10.940    10.940   0.1% |
  Multipole moments:                 0.023     0.023   0.0% |
  Normalize:                         0.010     0.010   0.0% |
  Pseudo density:                 5440.958     0.036   0.0% |
   Calculate density matrix:        14.949    14.949   0.1% |
   Construct density:             5425.972  5425.972  50.6% |-------------------|
   Symmetrize density:               0.001     0.001   0.0% |
 Hamiltonian:                       28.050     0.004   0.0% |
  Atomic:                           12.474     0.144   0.0% |
   XC Correction:                   12.330    12.330   0.1% |
  Calculate atomic Hamiltonians:     1.987     1.987   0.0% |
  Communicate:                       0.000     0.000   0.0% |
  Hartree integrate/restrict:        0.846     0.846   0.0% |
  Poisson:                           6.143     0.483   0.0% |
   Communicate from 1D:              0.733     0.733   0.0% |
   Communicate from 2D:              0.614     0.614   0.0% |
   Communicate to 1D:                0.533     0.533   0.0% |
   Communicate to 2D:                0.829     0.829   0.0% |
   FFT 1D:                           1.168     1.168   0.0% |
   FFT 2D:                           1.783     1.783   0.0% |
  XC 3D grid:                        5.637     5.637   0.1% |
  vbar:                              0.960     0.960   0.0% |
 LCAO eigensolver:                5237.134     2.385   0.0% |
  Calculate projections:           140.120   140.120   1.3% ||
  DenseAtomicCorrection:           316.070   316.070   2.9% ||
  Distribute overlap matrix:         4.491     4.491   0.0% |
  Orbital Layouts:                3818.134  3818.134  35.6% |-------------|
  Potential matrix:                856.269   856.269   8.0% |--|
  Sum over cells:                   99.664    99.664   0.9% |
ST tci:                              1.761     1.761   0.0% |
Set symmetry:                        0.000     0.000   0.0% |
TCI: Evaluate splines:               0.403     0.403   0.0% |
mktci:                               0.024     0.024   0.0% |
Other:                               4.869     4.869   0.0% |
-----------------------------------------------------------
Total:                                     10731.008 100.0%

Memory usage: 4.71 GiB
Date: Mon Mar  2 00:26:22 2026
