
  ___ ___ ___ _ _ _  
 |   |   |_  | | | | 
 | | | | | . | | | | 
 |__ |  _|___|_____|  25.7.0
 |___|_|             

User:   mikei@Z790-AORUS-ELITE-AX
Date:   Sun Mar  1 07:48:46 2026
Arch:   x86_64
Pid:    89048
CWD:    /home/mikei/Dokumenty/code/cemea/ocx
Python: 3.10.16
gpaw:   /home/mikei/.pyenv/versions/cemea-env/lib/python3.10/site-packages/gpaw
_gpaw:  /home/mikei/.pyenv/versions/cemea-env/lib/python3.10/site-packages/
        _gpaw.cpython-310-x86_64-linux-gnu.so
ase:    /home/mikei/.pyenv/versions/cemea-env/lib/python3.10/site-packages/ase (version 3.27.0)
numpy:  /home/mikei/.pyenv/versions/cemea-env/lib/python3.10/site-packages/numpy (version 2.2.6)
scipy:  /home/mikei/.pyenv/versions/cemea-env/lib/python3.10/site-packages/scipy (version 1.15.3)
libxc:  2.x.y
units:  Angstrom and eV
cores: 1
OpenMP: False
OMP_NUM_THREADS: 1

Input parameters:
  basis: dzp
  convergence: {density: 0.0001,
                eigenstates: 1e-05,
                energy: 1e-05}
  kpts: [4 4 1]
  mode: lcao

System changes: positions, numbers, cell, pbc, initial_charges, initial_magmoms 

Initialize ...

species:
  Ni:
    name: Nickel
    id: 1802175e8de9ea26d9f4394ec1a7d564
    Z: 28.0
    valence: 16
    core: 12
    charge: 0.0
    file: /home/mikei/.pyenv/versions/cemea-env/lib/python3.10/site-packages/gpaw_data/setups/Ni.LDA.gz
    compensation charges: {type: gauss,
                           rc: 0.36,
                           lmax: 2}
    cutoffs: {filter: 2.14,
              core: 1.98}
    projectors:
      #              energy  rcut
      - 4s(2.00)    -5.858   1.164
      - 3p(6.00)   -71.266   1.207
      - 4p(0.00)    -1.338   1.207
      - 3d(8.00)    -9.141   1.138
      -  s          21.353   1.164
      -  d          18.071   1.138
  
    # LCAO basis set for Ni:
    #   Name: dzp
    #   File: /home/mikei/.pyenv/versions/cemea-env/lib/python3.10/site-packages/gpaw_data/setups/Ni.dzp.basis.gz
    #   Number of radial functions: 9
    #   Number of spherical harmonics: 27
    #     l=0, rc=8.5156 Bohr: 4s-sz confined orbital
    #     l=1, rc=2.9375 Bohr: 3p-sz confined orbital
    #     l=1, rc=12.4062 Bohr: 4p-sz confined orbital
    #     l=2, rc=4.6875 Bohr: 3d-sz confined orbital
    #     l=0, rc=4.9688 Bohr: 4s-dz split-valence wave
    #     l=1, rc=2.0781 Bohr: 3p-dz split-valence wave
    #     l=1, rc=7.5469 Bohr: 4p-dz split-valence wave
    #     l=2, rc=2.9375 Bohr: 3d-dz split-valence wave
    #     l=1, rc=8.5156 Bohr: p-type Gaussian polarization
    #   Number of RI-basis functions 0

  Mo:
    name: Molybdenum
    id: ac24daaf086600a00ce6d19a74574df1
    Z: 42.0
    valence: 14
    core: 28
    charge: 0.0
    file: /home/mikei/.pyenv/versions/cemea-env/lib/python3.10/site-packages/gpaw_data/setups/Mo.LDA.gz
    compensation charges: {type: gauss,
                           rc: 0.38,
                           lmax: 2}
    cutoffs: {filter: 2.16,
              core: 1.42}
    projectors:
      #              energy  rcut
      - 4s(2.00)   -64.384   1.238
      - 5s(1.00)    -4.319   1.238
      - 4p(6.00)   -38.595   1.296
      - 5p(0.00)    -1.161   1.296
      - 4d(5.00)    -3.933   1.296
      -  d          23.278   1.296
  
    # LCAO basis set for Mo:
    #   Name: dzp
    #   File: /home/mikei/.pyenv/versions/cemea-env/lib/python3.10/site-packages/gpaw_data/setups/Mo.dzp.basis.gz
    #   Number of radial functions: 11
    #   Number of spherical harmonics: 29
    #     l=0, rc=3.5469 Bohr: 4s-sz confined orbital
    #     l=0, rc=10.0469 Bohr: 5s-sz confined orbital
    #     l=1, rc=4.0781 Bohr: 4p-sz confined orbital
    #     l=1, rc=14.0938 Bohr: 5p-sz confined orbital
    #     l=2, rc=7.2031 Bohr: 4d-sz confined orbital
    #     l=0, rc=2.1250 Bohr: 4s-dz split-valence wave
    #     l=0, rc=6.1250 Bohr: 5s-dz split-valence wave
    #     l=1, rc=2.5469 Bohr: 4p-dz split-valence wave
    #     l=1, rc=8.7656 Bohr: 5p-dz split-valence wave
    #     l=2, rc=4.2344 Bohr: 4d-dz split-valence wave
    #     l=1, rc=10.0469 Bohr: p-type Gaussian polarization
    #   Number of RI-basis functions 0

  B:
    name: Boron
    id: 02e2e0e88ef95f403158802f6b0f4231
    Z: 5.0
    valence: 3
    core: 2
    charge: 0.0
    file: /home/mikei/.pyenv/versions/cemea-env/lib/python3.10/site-packages/gpaw_data/setups/B.LDA.gz
    compensation charges: {type: gauss,
                           rc: 0.20,
                           lmax: 2}
    cutoffs: {filter: 1.14,
              core: 1.42}
    projectors:
      #              energy  rcut
      - 2s(2.00)    -9.383   0.635
      - 2p(1.00)    -3.714   0.635
      -  s          17.828   0.635
      -  p          23.498   0.635
      -  d           0.000   0.635
  
    # LCAO basis set for B:
    #   Name: dzp
    #   File: /home/mikei/.pyenv/versions/cemea-env/lib/python3.10/site-packages/gpaw_data/setups/B.dzp.basis.gz
    #   Number of radial functions: 5
    #   Number of spherical harmonics: 13
    #     l=0, rc=6.6719 Bohr: 2s-sz confined orbital
    #     l=1, rc=8.2188 Bohr: 2p-sz confined orbital
    #     l=0, rc=3.7500 Bohr: 2s-dz split-valence wave
    #     l=1, rc=4.6094 Bohr: 2p-dz split-valence wave
    #     l=2, rc=8.2188 Bohr: d-type Gaussian polarization
    #   Number of RI-basis functions 0

  Ag:
    name: Silver
    id: 5bcdc129af383d1b52b015d30ddad325
    Z: 47.0
    valence: 17
    core: 30
    charge: 0.0
    file: /home/mikei/.pyenv/versions/cemea-env/lib/python3.10/site-packages/gpaw_data/setups/Ag.LDA.gz
    compensation charges: {type: gauss,
                           rc: 0.40,
                           lmax: 2}
    cutoffs: {filter: 2.35,
              core: 2.19}
    projectors:
      #              energy  rcut
      - 5s(1.00)    -4.708   1.286
      - 4p(6.00)   -58.678   1.328
      - 5p(0.00)    -0.844   1.328
      - 4d(10.00)    -7.664   1.180
      -  s          22.503   1.286
      -  d          19.547   1.180
  
    # LCAO basis set for Ag:
    #   Name: dzp
    #   File: /home/mikei/.pyenv/versions/cemea-env/lib/python3.10/site-packages/gpaw_data/setups/Ag.dzp.basis.gz
    #   Number of radial functions: 9
    #   Number of spherical harmonics: 27
    #     l=0, rc=9.2812 Bohr: 5s-sz confined orbital
    #     l=1, rc=3.3750 Bohr: 4p-sz confined orbital
    #     l=1, rc=14.2344 Bohr: 5p-sz confined orbital
    #     l=2, rc=5.4531 Bohr: 4d-sz confined orbital
    #     l=0, rc=5.5156 Bohr: 5s-dz split-valence wave
    #     l=1, rc=2.3281 Bohr: 4p-dz split-valence wave
    #     l=1, rc=8.7656 Bohr: 5p-dz split-valence wave
    #     l=2, rc=3.2656 Bohr: 4d-dz split-valence wave
    #     l=1, rc=9.2812 Bohr: p-type Gaussian polarization
    #   Number of RI-basis functions 0

  H:
    name: Hydrogen
    id: 4766778ce56282eaa64abeb28b7c1de3
    Z: 1.0
    valence: 1
    core: 0
    charge: 0.0
    file: /home/mikei/.pyenv/versions/cemea-env/lib/python3.10/site-packages/gpaw_data/setups/H.LDA.gz
    compensation charges: {type: gauss,
                           rc: 0.15,
                           lmax: 2}
    cutoffs: {filter: 0.85,
              core: 0.53}
    projectors:
      #              energy  rcut
      - 1s(1.00)    -6.353   0.476
      -  s          20.858   0.476
      -  p           0.000   0.476
  
    # LCAO basis set for H:
    #   Name: dzp
    #   File: /home/mikei/.pyenv/versions/cemea-env/lib/python3.10/site-packages/gpaw_data/setups/H.dzp.basis.gz
    #   Number of radial functions: 3
    #   Number of spherical harmonics: 5
    #     l=0, rc=6.4219 Bohr: 1s-sz confined orbital
    #     l=0, rc=3.6094 Bohr: 1s-dz split-valence wave
    #     l=1, rc=6.4219 Bohr: p-type Gaussian polarization
    #   Number of RI-basis functions 0

Reference energy: -2218492.354067  # eV

Spin-paired calculation

Convergence criteria:
 Maximum [total energy] change in last 3 cyles: 1e-05 eV / valence electron
 Maximum integral of absolute [dens]ity change: 0.0001 electrons / valence electron
 Maximum integral of absolute [eigenst]ate change: 1e-05 eV^2 / valence electron
 Maximum number of scf [iter]ations: 333
 (Square brackets indicate name in SCF output, whereas a 'c' in
 the SCF output indicates the quantity has converged.)

Symmetries present (total): 1

  ( 1  0  0)
  ( 0  1  0)
  ( 0  0  1)

16 k-points: 4 x 4 x 1 Monkhorst-Pack grid
8 k-points in the irreducible part of the Brillouin zone
       k-points in crystal coordinates                weights
   0:     0.12500000   -0.37500000    0.00000000          2/16
   1:     0.12500000   -0.12500000    0.00000000          2/16
   2:     0.12500000    0.12500000    0.00000000          2/16
   3:     0.12500000    0.37500000    0.00000000          2/16
   4:     0.37500000   -0.37500000    0.00000000          2/16
   5:     0.37500000   -0.12500000    0.00000000          2/16
   6:     0.37500000    0.12500000    0.00000000          2/16
   7:     0.37500000    0.37500000    0.00000000          2/16

Wave functions: LCAO
  Diagonalizer: Serial LAPACK
  Atomic Correction: dense with blas
  Data-type: complex
 

Occupation numbers: Fermi-Dirac:
  width: 0.1000  # eV
 

Eigensolver
   LCAO using direct dense diagonalizer 

Densities:
  Coarse grid: 36*36*124 grid
  Fine grid: 72*72*248 grid
  Total Charge: 0.000000 

Density mixing:
  Method: separate
  Backend: pulay
  Linear mixing parameter: 0.05
  old densities: 5
  Damping of long wavelength oscillations: 50 

Hamiltonian:
  XC and Coulomb potentials evaluated on a 72*72*248 grid
  Using the LDA Exchange-Correlation functional
  Interpolation: tri-quintic (5. degree polynomial)
  Poisson solver: FastPoissonSolver using
    Stencil: 6*3+1=19 point O(h^6) finite-difference Laplacian
    FFT axes: [np.int64(0), np.int64(1), np.int64(2)]
    FST axes: []
 

Memory estimate:
  Process memory now: 4818.40 MiB
  Calculator: 931.89 MiB
    Density: 210.33 MiB
      Arrays: 31.88 MiB
      Localized functions: 166.19 MiB
      Mixer: 12.26 MiB
    Hamiltonian: 33.38 MiB
      Arrays: 20.84 MiB
      XC: 0.00 MiB
      Poisson: 0.00 MiB
      vbar: 12.54 MiB
    Wavefunctions: 688.17 MiB
      C [qnM]: 60.30 MiB
      S, T [2 x qmm]: 350.98 MiB
      P [aqMi]: 7.44 MiB
      BasisFunctions: 269.46 MiB
      Eigensolver: 0.00 MiB

Total number of cores used: 1

Number of atoms: 47
Number of atomic orbitals: 1199
Number of bands in calculation: 412
Number of valence electrons: 679
Bands to converge: occupied

... initialized

Initializing position-dependent things.

Density initialized from atomic densities
      .-----------------.  
     /|                 |  
    / |                 |  
   /  |                 |  
  /   |                 |  
 *    |                 |  
 |    |                 |  
 |    |                 |  
 |    |                 |  
 |    |   H             |  
 |    |                 |  
 |    |Ag    Ag         |  
 |    | B      B        |  
 |    |                 |  
 |    B      B          |  
 | Mo |   Mo            |  
 |  Ni|   Ni    Ni      |  
 Mo   | Mo              |  
 | Ni | NNi   NNi   Ni  |  
 |    Ni    Ni    Ni    |  
 Ni   |Ni    Ni         |  
 |  NNi   NNi   NNi     |  
 | Ni | NNi   NNi   Ni  |  
 |    |                 |  
 Ni   NNi   NNi   Ni    |  
 |   Ni    Ni    Ni     |  
 |    |                 |  
 |    |                 |  
 |    |                 |  
 |    |                 |  
 |    |                 |  
 |    .-----------------.  
 |   /                 /   
 |  /                 /    
 | /                 /     
 |/                 /      
 *-----------------*       

Atomic positions and initial magnetic moments

Positions:
   0 Ni     1.244508    1.244508    8.000000    ( 0.0000,  0.0000,  0.0000)
   1 Ni     3.733524    1.244508    8.000000    ( 0.0000,  0.0000,  0.0000)
   2 Ni     6.222540    1.244508    8.000000    ( 0.0000,  0.0000,  0.0000)
   3 Ni     1.244508    3.733524    8.000000    ( 0.0000,  0.0000,  0.0000)
   4 Ni     3.733524    3.733524    8.000000    ( 0.0000,  0.0000,  0.0000)
   5 Ni     6.222540    3.733524    8.000000    ( 0.0000,  0.0000,  0.0000)
   6 Ni     1.244508    6.222540    8.000000    ( 0.0000,  0.0000,  0.0000)
   7 Ni     3.733524    6.222540    8.000000    ( 0.0000,  0.0000,  0.0000)
   8 Ni     6.222540    6.222540    8.000000    ( 0.0000,  0.0000,  0.0000)
   9 Ni     0.000000    0.000000    9.760000    ( 0.0000,  0.0000,  0.0000)
  10 Ni     2.489016    0.000000    9.760000    ( 0.0000,  0.0000,  0.0000)
  11 Ni     4.978032    0.000000    9.760000    ( 0.0000,  0.0000,  0.0000)
  12 Ni     0.000000    2.489016    9.760000    ( 0.0000,  0.0000,  0.0000)
  13 Ni     2.489016    2.489016    9.760000    ( 0.0000,  0.0000,  0.0000)
  14 Ni     4.978032    2.489016    9.760000    ( 0.0000,  0.0000,  0.0000)
  15 Ni     0.000000    4.978032    9.760000    ( 0.0000,  0.0000,  0.0000)
  16 Ni     2.489016    4.978032    9.760000    ( 0.0000,  0.0000,  0.0000)
  17 Ni     4.978032    4.978032    9.760000    ( 0.0000,  0.0000,  0.0000)
  18 Ni     1.244508    1.244508   11.520000    ( 0.0000,  0.0000,  0.0000)
  19 Ni     3.733524    1.244508   11.520000    ( 0.0000,  0.0000,  0.0000)
  20 Ni     6.222540    1.244508   11.520000    ( 0.0000,  0.0000,  0.0000)
  21 Ni     1.244508    3.733524   11.520000    ( 0.0000,  0.0000,  0.0000)
  22 Ni     3.733524    3.733524   11.520000    ( 0.0000,  0.0000,  0.0000)
  23 Ni     6.222540    3.733524   11.520000    ( 0.0000,  0.0000,  0.0000)
  24 Ni     1.244508    6.222540   11.520000    ( 0.0000,  0.0000,  0.0000)
  25 Ni     3.733524    6.222540   11.520000    ( 0.0000,  0.0000,  0.0000)
  26 Ni     6.222540    6.222540   11.520000    ( 0.0000,  0.0000,  0.0000)
  27 Ni     0.000000    0.000000   13.280000    ( 0.0000,  0.0000,  0.0000)
  28 Ni     2.489016    0.000000   13.280000    ( 0.0000,  0.0000,  0.0000)
  29 Ni     4.978032    0.000000   13.280000    ( 0.0000,  0.0000,  0.0000)
  30 Ni     0.000000    2.489016   13.280000    ( 0.0000,  0.0000,  0.0000)
  31 Ni     2.489016    2.489016   13.280000    ( 0.0000,  0.0000,  0.0000)
  32 Ni     4.978032    2.489016   13.280000    ( 0.0000,  0.0000,  0.0000)
  33 Ni     0.000000    4.978032   13.280000    ( 0.0000,  0.0000,  0.0000)
  34 Ni     2.489016    4.978032   13.280000    ( 0.0000,  0.0000,  0.0000)
  35 Ni     4.978032    4.978032   13.280000    ( 0.0000,  0.0000,  0.0000)
  36 Mo     0.000000    0.000000   15.480000    ( 0.0000,  0.0000,  0.0000)
  37 B      1.525000    1.525000   17.005000    ( 0.0000,  0.0000,  0.0000)
  38 Mo     0.000000    3.050000   15.480000    ( 0.0000,  0.0000,  0.0000)
  39 B      1.525000    4.575000   17.005000    ( 0.0000,  0.0000,  0.0000)
  40 Mo     3.050000    0.000000   15.480000    ( 0.0000,  0.0000,  0.0000)
  41 B      4.575000    1.525000   17.005000    ( 0.0000,  0.0000,  0.0000)
  42 Mo     3.050000    3.050000   15.480000    ( 0.0000,  0.0000,  0.0000)
  43 B      4.575000    4.575000   17.005000    ( 0.0000,  0.0000,  0.0000)
  44 Ag     1.761494    2.961494   18.805000    ( 0.0000,  0.0000,  0.0000)
  45 Ag     4.161494    2.961494   18.805000    ( 0.0000,  0.0000,  0.0000)
  46 H      2.961494    2.961494   20.305000    ( 0.0000,  0.0000,  0.0000)

Unit cell:
           periodic     x           y           z      points  spacing
  1. axis:    yes    7.467048    0.000000    0.000000    36     0.2074
  2. axis:    yes    0.000000    7.467048    0.000000    36     0.2074
  3. axis:    yes    0.000000    0.000000   25.005000   124     0.2017

  Lengths:   7.467048   7.467048  25.005000
  Angles:   90.000000  90.000000  90.000000

Effective grid spacing dv^(1/3) = 0.2055

     iter     time        total  log10-change:
                         energy   eigst   dens
iter:   1 07:49:42  -747.170972        c
iter:   2 07:51:54 -2039.009033        c -1.05
iter:   3 07:53:49  -569.961690        c -0.54
iter:   4 07:56:12  -377.846776        c -1.16
iter:   5 07:58:47  -346.909805        c -1.50
iter:   6 08:01:10  -348.433510        c -1.58
iter:   7 08:03:19  -349.033154        c -1.54
iter:   8 08:05:13  -366.850908        c -1.55
iter:   9 08:07:04  -346.397977        c -1.58
iter:  10 08:09:25  -337.470530        c -1.75
iter:  11 08:11:53  -332.288223        c -1.80
iter:  12 08:13:38  -332.092559        c -1.84
iter:  13 08:15:45  -334.486360        c -1.86
iter:  14 08:17:56  -332.266864        c -1.86
iter:  15 08:20:05  -342.328727        c -1.96
iter:  16 08:21:42  -333.218787        c -1.71
iter:  17 08:24:07  -342.329616        c -2.02
iter:  18 08:26:16  -335.036965        c -1.77
iter:  19 08:28:39  -332.854001        c -1.88
iter:  20 08:30:36  -333.292233        c -2.04
iter:  21 08:32:49  -331.733631        c -2.11
iter:  22 08:35:06  -337.178609        c -2.19
iter:  23 08:37:45  -331.845032        c -1.94
iter:  24 08:39:47  -330.716045        c -2.22
iter:  25 08:41:44  -331.318817        c -2.55
iter:  26 08:44:15  -330.678498        c -2.37
iter:  27 08:47:08  -330.518993        c -2.52
iter:  28 08:49:36  -330.526804        c -2.63
iter:  29 08:52:06  -330.803607        c -2.72
iter:  30 08:54:18  -330.497126        c -2.47
iter:  31 08:56:39  -330.574507        c -2.79
iter:  32 08:58:46  -330.655305        c -2.65
iter:  33 09:00:51  -330.486820        c -2.55
iter:  34 09:02:52  -330.595612        c -2.90
iter:  35 09:05:24  -330.419482        c -2.69
iter:  36 09:07:27  -330.419843        c -3.11
iter:  37 09:09:27  -330.411068        c -3.14
iter:  38 09:11:04  -330.394044        c -3.18
iter:  39 09:13:20  -330.415651        c -3.15
iter:  40 09:15:58  -330.483326        c -3.09
iter:  41 09:18:03  -330.397456        c -2.83
iter:  42 09:20:44  -330.395726        c -3.33
iter:  43 09:22:27  -330.395434c       c -3.43
iter:  44 09:24:29  -330.406610        c -3.41
iter:  45 09:26:30  -330.403575        c -3.22
iter:  46 09:29:25  -330.392298        c -3.34
iter:  47 09:31:38  -330.389705        c -3.86
iter:  48 09:33:36  -330.390425c       c -3.66
iter:  49 09:35:53  -330.389826c       c -3.91
iter:  50 09:38:25  -330.391510c       c -3.99
iter:  51 09:40:56  -330.389316c       c -3.89
iter:  52 09:43:01  -330.389759c       c -3.92
iter:  53 09:45:52  -330.392097c       c -4.10c

Converged after 53 iterations.

Dipole moment: (-13.400455, -13.053561, 0.056668) |e|*Ang

Energy contributions relative to reference atoms: (reference = -2218492.354067)

Kinetic:        +66.796059
Potential:      -31.812005
External:        +0.000000
XC:            -361.837069
Entropy (-ST):   -3.505186
Local:           -1.786489
SIC:             +0.000000
--------------------------
Free energy:   -332.144690
Extrapolated:  -330.392097

Showing only first 2 kpts
 Kpt  Band  Eigenvalues  Occupancy
  0   337     -0.04926    1.29912
  0   338     -0.03745    1.24443
  0   339     -0.01650    1.14372
  0   340      0.00583    1.03306

  1   337     -0.07124    1.39559
  1   338     -0.04176    1.26459
  1   339     -0.03850    1.24934
  1   340     -0.02697    1.19457


Fermi level: 0.01245

No gap
No difference between direct/indirect transitions
Timing:                              incl.     excl.
-----------------------------------------------------------
Basic WFS set positions:             0.000     0.000   0.0% |
Basis functions set positions:       0.170     0.170   0.0% |
LCAO WFS Initialize:                 0.397     0.084   0.0% |
 Hamiltonian:                        0.313     0.000   0.0% |
  Atomic:                            0.152     0.002   0.0% |
   XC Correction:                    0.150     0.150   0.0% |
  Calculate atomic Hamiltonians:     0.024     0.024   0.0% |
  Communicate:                       0.000     0.000   0.0% |
  Hartree integrate/restrict:        0.011     0.011   0.0% |
  Initialize Hamiltonian:            0.001     0.001   0.0% |
  Poisson:                           0.078     0.007   0.0% |
   Communicate from 1D:              0.008     0.008   0.0% |
   Communicate from 2D:              0.007     0.007   0.0% |
   Communicate to 1D:                0.008     0.008   0.0% |
   Communicate to 2D:                0.011     0.011   0.0% |
   FFT 1D:                           0.015     0.015   0.0% |
   FFT 2D:                           0.023     0.023   0.0% |
  XC 3D grid:                        0.044     0.044   0.0% |
  vbar:                              0.004     0.004   0.0% |
P tci:                               4.567     4.567   0.1% |
SCF-cycle:                        7013.887     0.202   0.0% |
 Density:                         3481.025     0.001   0.0% |
  Atomic density matrices:           0.886     0.886   0.0% |
  Mix:                               6.838     6.838   0.1% |
  Multipole moments:                 0.014     0.014   0.0% |
  Normalize:                         0.006     0.006   0.0% |
  Pseudo density:                 3473.280     0.022   0.0% |
   Calculate density matrix:         9.443     9.443   0.1% |
   Construct density:             3463.814  3463.814  49.3% |-------------------|
   Symmetrize density:               0.001     0.001   0.0% |
 Hamiltonian:                       17.499     0.002   0.0% |
  Atomic:                            7.887     0.089   0.0% |
   XC Correction:                    7.798     7.798   0.1% |
  Calculate atomic Hamiltonians:     1.222     1.222   0.0% |
  Communicate:                       0.000     0.000   0.0% |
  Hartree integrate/restrict:        0.530     0.530   0.0% |
  Poisson:                           3.936     0.317   0.0% |
   Communicate from 1D:              0.440     0.440   0.0% |
   Communicate from 2D:              0.390     0.390   0.0% |
   Communicate to 1D:                0.346     0.346   0.0% |
   Communicate to 2D:                0.526     0.526   0.0% |
   FFT 1D:                           0.743     0.743   0.0% |
   FFT 2D:                           1.174     1.174   0.0% |
  XC 3D grid:                        3.377     3.377   0.0% |
  vbar:                              0.545     0.545   0.0% |
 LCAO eigensolver:                3515.161     1.464   0.0% |
  Calculate projections:            88.486    88.486   1.3% ||
  DenseAtomicCorrection:           198.752   198.752   2.8% ||
  Distribute overlap matrix:         2.822     2.822   0.0% |
  Orbital Layouts:                2610.222  2610.222  37.2% |--------------|
  Potential matrix:                550.511   550.511   7.8% |--|
  Sum over cells:                   62.903    62.903   0.9% |
ST tci:                              1.783     1.783   0.0% |
Set symmetry:                        0.000     0.000   0.0% |
TCI: Evaluate splines:               0.694     0.694   0.0% |
mktci:                               0.024     0.024   0.0% |
Other:                               4.520     4.520   0.1% |
-----------------------------------------------------------
Total:                                      7026.044 100.0%

Memory usage: 4.71 GiB
Date: Sun Mar  1 09:45:52 2026
