
  ___ ___ ___ _ _ _  
 |   |   |_  | | | | 
 | | | | | . | | | | 
 |__ |  _|___|_____|  25.7.0
 |___|_|             

User:   mikei@Z790-AORUS-ELITE-AX
Date:   Tue Mar  3 00:19:01 2026
Arch:   x86_64
Pid:    89048
CWD:    /home/mikei/Dokumenty/code/cemea/ocx
Python: 3.10.16
gpaw:   /home/mikei/.pyenv/versions/cemea-env/lib/python3.10/site-packages/gpaw
_gpaw:  /home/mikei/.pyenv/versions/cemea-env/lib/python3.10/site-packages/
        _gpaw.cpython-310-x86_64-linux-gnu.so
ase:    /home/mikei/.pyenv/versions/cemea-env/lib/python3.10/site-packages/ase (version 3.27.0)
numpy:  /home/mikei/.pyenv/versions/cemea-env/lib/python3.10/site-packages/numpy (version 2.2.6)
scipy:  /home/mikei/.pyenv/versions/cemea-env/lib/python3.10/site-packages/scipy (version 1.15.3)
libxc:  2.x.y
units:  Angstrom and eV
cores: 1
OpenMP: False
OMP_NUM_THREADS: 1

Input parameters:
  basis: dzp
  convergence: {density: 0.0001,
                eigenstates: 1e-05,
                energy: 1e-05}
  kpts: [4 4 1]
  mode: lcao

System changes: positions, numbers, cell, pbc, initial_charges, initial_magmoms 

Initialize ...

species:
  Ni:
    name: Nickel
    id: 1802175e8de9ea26d9f4394ec1a7d564
    Z: 28.0
    valence: 16
    core: 12
    charge: 0.0
    file: /home/mikei/.pyenv/versions/cemea-env/lib/python3.10/site-packages/gpaw_data/setups/Ni.LDA.gz
    compensation charges: {type: gauss,
                           rc: 0.36,
                           lmax: 2}
    cutoffs: {filter: 2.14,
              core: 1.98}
    projectors:
      #              energy  rcut
      - 4s(2.00)    -5.858   1.164
      - 3p(6.00)   -71.266   1.207
      - 4p(0.00)    -1.338   1.207
      - 3d(8.00)    -9.141   1.138
      -  s          21.353   1.164
      -  d          18.071   1.138
  
    # LCAO basis set for Ni:
    #   Name: dzp
    #   File: /home/mikei/.pyenv/versions/cemea-env/lib/python3.10/site-packages/gpaw_data/setups/Ni.dzp.basis.gz
    #   Number of radial functions: 9
    #   Number of spherical harmonics: 27
    #     l=0, rc=8.5156 Bohr: 4s-sz confined orbital
    #     l=1, rc=2.9375 Bohr: 3p-sz confined orbital
    #     l=1, rc=12.4062 Bohr: 4p-sz confined orbital
    #     l=2, rc=4.6875 Bohr: 3d-sz confined orbital
    #     l=0, rc=4.9688 Bohr: 4s-dz split-valence wave
    #     l=1, rc=2.0781 Bohr: 3p-dz split-valence wave
    #     l=1, rc=7.5469 Bohr: 4p-dz split-valence wave
    #     l=2, rc=2.9375 Bohr: 3d-dz split-valence wave
    #     l=1, rc=8.5156 Bohr: p-type Gaussian polarization
    #   Number of RI-basis functions 0

  Mo:
    name: Molybdenum
    id: ac24daaf086600a00ce6d19a74574df1
    Z: 42.0
    valence: 14
    core: 28
    charge: 0.0
    file: /home/mikei/.pyenv/versions/cemea-env/lib/python3.10/site-packages/gpaw_data/setups/Mo.LDA.gz
    compensation charges: {type: gauss,
                           rc: 0.38,
                           lmax: 2}
    cutoffs: {filter: 2.16,
              core: 1.42}
    projectors:
      #              energy  rcut
      - 4s(2.00)   -64.384   1.238
      - 5s(1.00)    -4.319   1.238
      - 4p(6.00)   -38.595   1.296
      - 5p(0.00)    -1.161   1.296
      - 4d(5.00)    -3.933   1.296
      -  d          23.278   1.296
  
    # LCAO basis set for Mo:
    #   Name: dzp
    #   File: /home/mikei/.pyenv/versions/cemea-env/lib/python3.10/site-packages/gpaw_data/setups/Mo.dzp.basis.gz
    #   Number of radial functions: 11
    #   Number of spherical harmonics: 29
    #     l=0, rc=3.5469 Bohr: 4s-sz confined orbital
    #     l=0, rc=10.0469 Bohr: 5s-sz confined orbital
    #     l=1, rc=4.0781 Bohr: 4p-sz confined orbital
    #     l=1, rc=14.0938 Bohr: 5p-sz confined orbital
    #     l=2, rc=7.2031 Bohr: 4d-sz confined orbital
    #     l=0, rc=2.1250 Bohr: 4s-dz split-valence wave
    #     l=0, rc=6.1250 Bohr: 5s-dz split-valence wave
    #     l=1, rc=2.5469 Bohr: 4p-dz split-valence wave
    #     l=1, rc=8.7656 Bohr: 5p-dz split-valence wave
    #     l=2, rc=4.2344 Bohr: 4d-dz split-valence wave
    #     l=1, rc=10.0469 Bohr: p-type Gaussian polarization
    #   Number of RI-basis functions 0

  B:
    name: Boron
    id: 02e2e0e88ef95f403158802f6b0f4231
    Z: 5.0
    valence: 3
    core: 2
    charge: 0.0
    file: /home/mikei/.pyenv/versions/cemea-env/lib/python3.10/site-packages/gpaw_data/setups/B.LDA.gz
    compensation charges: {type: gauss,
                           rc: 0.20,
                           lmax: 2}
    cutoffs: {filter: 1.14,
              core: 1.42}
    projectors:
      #              energy  rcut
      - 2s(2.00)    -9.383   0.635
      - 2p(1.00)    -3.714   0.635
      -  s          17.828   0.635
      -  p          23.498   0.635
      -  d           0.000   0.635
  
    # LCAO basis set for B:
    #   Name: dzp
    #   File: /home/mikei/.pyenv/versions/cemea-env/lib/python3.10/site-packages/gpaw_data/setups/B.dzp.basis.gz
    #   Number of radial functions: 5
    #   Number of spherical harmonics: 13
    #     l=0, rc=6.6719 Bohr: 2s-sz confined orbital
    #     l=1, rc=8.2188 Bohr: 2p-sz confined orbital
    #     l=0, rc=3.7500 Bohr: 2s-dz split-valence wave
    #     l=1, rc=4.6094 Bohr: 2p-dz split-valence wave
    #     l=2, rc=8.2188 Bohr: d-type Gaussian polarization
    #   Number of RI-basis functions 0

  Ir:
    name: Iridium
    id: ca472fc5a58bba06e8299391bae24b72
    Z: 77.0
    valence: 15
    core: 62
    charge: 0.0
    file: /home/mikei/.pyenv/versions/cemea-env/lib/python3.10/site-packages/gpaw_data/setups/Ir.LDA.gz
    compensation charges: {type: gauss,
                           rc: 0.40,
                           lmax: 2}
    cutoffs: {filter: 2.40,
              core: 2.36}
    projectors:
      #              energy  rcut
      - 6s(2.00)    -6.559   1.296
      - 5p(6.00)   -54.966   1.328
      - 6p(0.00)    -1.355   1.328
      - 5d(7.00)    -7.377   1.286
      -  s          20.652   1.296
      -  d          19.835   1.286
  
    # LCAO basis set for Ir:
    #   Name: dzp
    #   File: /home/mikei/.pyenv/versions/cemea-env/lib/python3.10/site-packages/gpaw_data/setups/Ir.dzp.basis.gz
    #   Number of radial functions: 9
    #   Number of spherical harmonics: 27
    #     l=0, rc=8.4062 Bohr: 6s-sz confined orbital
    #     l=1, rc=3.6406 Bohr: 5p-sz confined orbital
    #     l=1, rc=12.7031 Bohr: 6p-sz confined orbital
    #     l=2, rc=6.0469 Bohr: 5d-sz confined orbital
    #     l=0, rc=4.9844 Bohr: 6s-dz split-valence wave
    #     l=1, rc=2.4062 Bohr: 5p-dz split-valence wave
    #     l=1, rc=7.7969 Bohr: 6p-dz split-valence wave
    #     l=2, rc=3.5938 Bohr: 5d-dz split-valence wave
    #     l=1, rc=8.4062 Bohr: p-type Gaussian polarization
    #   Number of RI-basis functions 0

Reference energy: -3866400.112448  # eV

Spin-paired calculation

Convergence criteria:
 Maximum [total energy] change in last 3 cyles: 1e-05 eV / valence electron
 Maximum integral of absolute [dens]ity change: 0.0001 electrons / valence electron
 Maximum integral of absolute [eigenst]ate change: 1e-05 eV^2 / valence electron
 Maximum number of scf [iter]ations: 333
 (Square brackets indicate name in SCF output, whereas a 'c' in
 the SCF output indicates the quantity has converged.)

Symmetries present (total): 2

  ( 1  0  0)  ( 0  1  0)
  ( 0  1  0)  ( 1  0  0)
  ( 0  0  1)  ( 0  0  1)

16 k-points: 4 x 4 x 1 Monkhorst-Pack grid
6 k-points in the irreducible part of the Brillouin zone
       k-points in crystal coordinates                weights
   0:     0.12500000   -0.12500000    0.00000000          2/16
   1:     0.12500000    0.12500000    0.00000000          2/16
   2:     0.37500000   -0.37500000    0.00000000          2/16
   3:     0.37500000   -0.12500000    0.00000000          4/16
   4:     0.37500000    0.12500000    0.00000000          4/16
   5:     0.37500000    0.37500000    0.00000000          2/16

Wave functions: LCAO
  Diagonalizer: Serial LAPACK
  Atomic Correction: dense with blas
  Data-type: complex
 

Occupation numbers: Fermi-Dirac:
  width: 0.1000  # eV
 

Eigensolver
   LCAO using direct dense diagonalizer 

Densities:
  Coarse grid: 36*36*124 grid
  Fine grid: 72*72*248 grid
  Total Charge: 0.000000 

Density mixing:
  Method: separate
  Backend: pulay
  Linear mixing parameter: 0.05
  old densities: 5
  Damping of long wavelength oscillations: 50 

Hamiltonian:
  XC and Coulomb potentials evaluated on a 72*72*248 grid
  Using the LDA Exchange-Correlation functional
  Interpolation: tri-quintic (5. degree polynomial)
  Poisson solver: FastPoissonSolver using
    Stencil: 6*3+1=19 point O(h^6) finite-difference Laplacian
    FFT axes: [np.int64(0), np.int64(1), np.int64(2)]
    FST axes: []
 

Memory estimate:
  Process memory now: 4818.40 MiB
  Calculator: 871.99 MiB
    Density: 220.16 MiB
      Arrays: 31.88 MiB
      Localized functions: 176.02 MiB
      Mixer: 12.26 MiB
    Hamiltonian: 34.23 MiB
      Arrays: 20.84 MiB
      XC: 0.00 MiB
      Poisson: 0.00 MiB
      vbar: 13.38 MiB
    Wavefunctions: 617.61 MiB
      C [qnM]: 48.79 MiB
      S, T [2 x qmm]: 285.19 MiB
      P [aqMi]: 6.03 MiB
      BasisFunctions: 277.61 MiB
      Eigensolver: 0.00 MiB

Total number of cores used: 1

Number of atoms: 48
Number of atomic orbitals: 1248
Number of bands in calculation: 427
Number of valence electrons: 704
Bands to converge: occupied

... initialized

Initializing position-dependent things.

Density initialized from atomic densities
      .-----------------.  
     /|                 |  
    / |                 |  
   /  |                 |  
  /   |                 |  
 *    |                 |  
 |    |                 |  
 |    |                 |  
 |    |                 |  
 |    |                 |  
 |    | Ir    Ir        |  
 |    |                 |  
 |    IrB   Ir B        |  
 |    |                 |  
 |    B      B          |  
 | Mo |   Mo            |  
 |  Ni|   Ni    Ni      |  
 Mo   | Mo              |  
 | Ni | NNi   NNi   Ni  |  
 |    Ni    Ni    Ni    |  
 Ni   |Ni    Ni         |  
 |  NNi   NNi   NNi     |  
 | Ni | NNi   NNi   Ni  |  
 |    |                 |  
 Ni   NNi   NNi   Ni    |  
 |   Ni    Ni    Ni     |  
 |    |                 |  
 |    |                 |  
 |    |                 |  
 |    |                 |  
 |    |                 |  
 |    .-----------------.  
 |   /                 /   
 |  /                 /    
 | /                 /     
 |/                 /      
 *-----------------*       

Atomic positions and initial magnetic moments

Positions:
   0 Ni     1.244508    1.244508    8.000000    ( 0.0000,  0.0000,  0.0000)
   1 Ni     3.733524    1.244508    8.000000    ( 0.0000,  0.0000,  0.0000)
   2 Ni     6.222540    1.244508    8.000000    ( 0.0000,  0.0000,  0.0000)
   3 Ni     1.244508    3.733524    8.000000    ( 0.0000,  0.0000,  0.0000)
   4 Ni     3.733524    3.733524    8.000000    ( 0.0000,  0.0000,  0.0000)
   5 Ni     6.222540    3.733524    8.000000    ( 0.0000,  0.0000,  0.0000)
   6 Ni     1.244508    6.222540    8.000000    ( 0.0000,  0.0000,  0.0000)
   7 Ni     3.733524    6.222540    8.000000    ( 0.0000,  0.0000,  0.0000)
   8 Ni     6.222540    6.222540    8.000000    ( 0.0000,  0.0000,  0.0000)
   9 Ni     0.000000    0.000000    9.760000    ( 0.0000,  0.0000,  0.0000)
  10 Ni     2.489016    0.000000    9.760000    ( 0.0000,  0.0000,  0.0000)
  11 Ni     4.978032    0.000000    9.760000    ( 0.0000,  0.0000,  0.0000)
  12 Ni     0.000000    2.489016    9.760000    ( 0.0000,  0.0000,  0.0000)
  13 Ni     2.489016    2.489016    9.760000    ( 0.0000,  0.0000,  0.0000)
  14 Ni     4.978032    2.489016    9.760000    ( 0.0000,  0.0000,  0.0000)
  15 Ni     0.000000    4.978032    9.760000    ( 0.0000,  0.0000,  0.0000)
  16 Ni     2.489016    4.978032    9.760000    ( 0.0000,  0.0000,  0.0000)
  17 Ni     4.978032    4.978032    9.760000    ( 0.0000,  0.0000,  0.0000)
  18 Ni     1.244508    1.244508   11.520000    ( 0.0000,  0.0000,  0.0000)
  19 Ni     3.733524    1.244508   11.520000    ( 0.0000,  0.0000,  0.0000)
  20 Ni     6.222540    1.244508   11.520000    ( 0.0000,  0.0000,  0.0000)
  21 Ni     1.244508    3.733524   11.520000    ( 0.0000,  0.0000,  0.0000)
  22 Ni     3.733524    3.733524   11.520000    ( 0.0000,  0.0000,  0.0000)
  23 Ni     6.222540    3.733524   11.520000    ( 0.0000,  0.0000,  0.0000)
  24 Ni     1.244508    6.222540   11.520000    ( 0.0000,  0.0000,  0.0000)
  25 Ni     3.733524    6.222540   11.520000    ( 0.0000,  0.0000,  0.0000)
  26 Ni     6.222540    6.222540   11.520000    ( 0.0000,  0.0000,  0.0000)
  27 Ni     0.000000    0.000000   13.280000    ( 0.0000,  0.0000,  0.0000)
  28 Ni     2.489016    0.000000   13.280000    ( 0.0000,  0.0000,  0.0000)
  29 Ni     4.978032    0.000000   13.280000    ( 0.0000,  0.0000,  0.0000)
  30 Ni     0.000000    2.489016   13.280000    ( 0.0000,  0.0000,  0.0000)
  31 Ni     2.489016    2.489016   13.280000    ( 0.0000,  0.0000,  0.0000)
  32 Ni     4.978032    2.489016   13.280000    ( 0.0000,  0.0000,  0.0000)
  33 Ni     0.000000    4.978032   13.280000    ( 0.0000,  0.0000,  0.0000)
  34 Ni     2.489016    4.978032   13.280000    ( 0.0000,  0.0000,  0.0000)
  35 Ni     4.978032    4.978032   13.280000    ( 0.0000,  0.0000,  0.0000)
  36 Mo     0.000000    0.000000   15.480000    ( 0.0000,  0.0000,  0.0000)
  37 B      1.525000    1.525000   17.005000    ( 0.0000,  0.0000,  0.0000)
  38 Mo     0.000000    3.050000   15.480000    ( 0.0000,  0.0000,  0.0000)
  39 B      1.525000    4.575000   17.005000    ( 0.0000,  0.0000,  0.0000)
  40 Mo     3.050000    0.000000   15.480000    ( 0.0000,  0.0000,  0.0000)
  41 B      4.575000    1.525000   17.005000    ( 0.0000,  0.0000,  0.0000)
  42 Mo     3.050000    3.050000   15.480000    ( 0.0000,  0.0000,  0.0000)
  43 B      4.575000    4.575000   17.005000    ( 0.0000,  0.0000,  0.0000)
  44 Ir     1.761494    1.761494   18.805000    ( 0.0000,  0.0000,  0.0000)
  45 Ir     1.761494    4.161494   18.805000    ( 0.0000,  0.0000,  0.0000)
  46 Ir     4.161494    1.761494   18.805000    ( 0.0000,  0.0000,  0.0000)
  47 Ir     4.161494    4.161494   18.805000    ( 0.0000,  0.0000,  0.0000)

Unit cell:
           periodic     x           y           z      points  spacing
  1. axis:    yes    7.467048    0.000000    0.000000    36     0.2074
  2. axis:    yes    0.000000    7.467048    0.000000    36     0.2074
  3. axis:    yes    0.000000    0.000000   25.005000   124     0.2017

  Lengths:   7.467048   7.467048  25.005000
  Angles:   90.000000  90.000000  90.000000

Effective grid spacing dv^(1/3) = 0.2055

     iter     time        total  log10-change:
                         energy   eigst   dens
iter:   1 00:19:44 -1070.243432        c
iter:   2 00:20:58 -3137.830599        c -0.92
iter:   3 00:22:28  -693.122509        c -0.47
iter:   4 00:24:15  -453.589813        c -1.07
iter:   5 00:26:24  -399.208302        c -1.33
iter:   6 00:27:57  -396.539125        c -1.45
iter:   7 00:29:34  -370.266342        c -1.44
iter:   8 00:30:48  -369.166071        c -1.56
iter:   9 00:32:52  -408.317252        c -1.62
iter:  10 00:34:53  -366.429573        c -1.55
iter:  11 00:36:35  -362.164374        c -1.69
iter:  12 00:38:06  -362.112700        c -1.83
iter:  13 00:39:48  -360.164190        c -1.91
iter:  14 00:41:27  -360.993040        c -1.93
iter:  15 00:42:54  -384.436058        c -1.96
iter:  16 00:44:31  -361.534588        c -1.51
iter:  17 00:46:42  -376.637956        c -2.00
iter:  18 00:48:15  -371.020931        c -1.72
iter:  19 00:50:15  -363.759261        c -1.82
iter:  20 00:51:37  -360.532435        c -1.96
iter:  21 00:53:51  -361.646307        c -2.17
iter:  22 00:55:29  -363.099761        c -2.18
iter:  23 00:57:08  -360.570351        c -2.14
iter:  24 00:58:58  -359.956676        c -2.32
iter:  25 01:01:04  -359.910462        c -2.42
iter:  26 01:02:58  -360.053664        c -2.47
iter:  27 01:04:38  -359.662126        c -2.41
iter:  28 01:06:20  -359.669732        c -2.71
iter:  29 01:08:10  -359.621412        c -2.72
iter:  30 01:10:01  -359.616552        c -2.84
iter:  31 01:12:06  -359.619330c       c -2.80
iter:  32 01:14:14  -359.609770        c -2.82
iter:  33 01:15:54  -359.620128        c -2.79
iter:  34 01:18:23  -359.621624        c -2.89
iter:  35 01:20:31  -359.600572        c -2.93
iter:  36 01:22:27  -359.579489        c -2.90
iter:  37 01:24:44  -359.585082        c -3.04
iter:  38 01:25:56  -359.578255c       c -2.94
iter:  39 01:27:40  -359.578239c       c -3.07
iter:  40 01:28:53  -359.630686        c -3.05
iter:  41 01:30:34  -359.614154        c -2.86
iter:  42 01:32:20  -359.568195        c -2.90
iter:  43 01:34:08  -359.586894        c -3.17
iter:  44 01:36:10  -359.572767        c -3.07
iter:  45 01:38:24  -359.572437        c -3.17
iter:  46 01:40:06  -359.589476        c -3.26
iter:  47 01:41:57  -359.579671        c -3.11
iter:  48 01:43:33  -359.576682        c -2.93
iter:  49 01:45:55  -359.574383c       c -3.20
iter:  50 01:47:29  -359.561989        c -3.26
iter:  51 01:48:56  -359.562583        c -3.28
iter:  52 01:50:42  -359.564384c       c -3.45
iter:  53 01:52:20  -359.564519c       c -3.29
iter:  54 01:53:41  -359.559655c       c -3.49
iter:  55 01:55:13  -359.566350c       c -3.44
iter:  56 01:56:44  -359.578009        c -3.21
iter:  57 01:58:24  -359.560743        c -3.25
iter:  58 02:00:13  -359.565971        c -3.54
iter:  59 02:01:49  -359.560712c       c -3.52
iter:  60 02:03:33  -359.560282c       c -3.77
iter:  61 02:05:20  -359.562372c       c -3.64
iter:  62 02:07:06  -359.560407c       c -3.74
iter:  63 02:08:51  -359.560916c       c -3.71
iter:  64 02:10:43  -359.561472c       c -3.77
iter:  65 02:12:35  -359.560526c       c -3.61
iter:  66 02:14:07  -359.565386c       c -3.89
iter:  67 02:16:10  -359.558847c       c -3.59
iter:  68 02:18:04  -359.560333c       c -3.82
iter:  69 02:19:41  -359.560114c       c -3.72
iter:  70 02:21:40  -359.560187c       c -4.03c

Converged after 70 iterations.

Dipole moment: (-14.124572, -14.124572, 0.278101) |e|*Ang

Energy contributions relative to reference atoms: (reference = -3866400.112448)

Kinetic:       +150.510629
Potential:     -104.996413
External:        +0.000000
XC:            -401.335408
Entropy (-ST):   -3.682695
Local:           -1.897647
SIC:             +0.000000
--------------------------
Free energy:   -361.401534
Extrapolated:  -359.560187

Showing only first 2 kpts
 Kpt  Band  Eigenvalues  Occupancy
  0   350      0.49406    1.27239
  0   351      0.50108    1.23960
  0   352      0.51148    1.19000
  0   353      0.52089    1.14429

  1   350      0.49507    1.26771
  1   351      0.49751    1.25636
  1   352      0.51595    1.16840
  1   353      0.52027    1.14731


Fermi level: 0.54995

No gap
No difference between direct/indirect transitions
Timing:                              incl.     excl.
-----------------------------------------------------------
Basic WFS set positions:             0.001     0.001   0.0% |
Basis functions set positions:       0.173     0.173   0.0% |
LCAO WFS Initialize:                 0.408     0.087   0.0% |
 Hamiltonian:                        0.321     0.000   0.0% |
  Atomic:                            0.162     0.002   0.0% |
   XC Correction:                    0.161     0.161   0.0% |
  Calculate atomic Hamiltonians:     0.025     0.025   0.0% |
  Communicate:                       0.000     0.000   0.0% |
  Hartree integrate/restrict:        0.010     0.010   0.0% |
  Initialize Hamiltonian:            0.001     0.001   0.0% |
  Poisson:                           0.074     0.005   0.0% |
   Communicate from 1D:              0.007     0.007   0.0% |
   Communicate from 2D:              0.007     0.007   0.0% |
   Communicate to 1D:                0.008     0.008   0.0% |
   Communicate to 2D:                0.009     0.009   0.0% |
   FFT 1D:                           0.015     0.015   0.0% |
   FFT 2D:                           0.022     0.022   0.0% |
  XC 3D grid:                        0.044     0.044   0.0% |
  vbar:                              0.005     0.005   0.0% |
P tci:                               3.621     3.621   0.0% |
SCF-cycle:                        7348.291     0.193   0.0% |
 Density:                         3565.915     0.001   0.0% |
  Atomic density matrices:           0.988     0.988   0.0% |
  Mix:                               8.824     8.824   0.1% |
  Multipole moments:                 0.019     0.019   0.0% |
  Normalize:                         0.007     0.007   0.0% |
  Pseudo density:                 3556.076     0.027   0.0% |
   Calculate density matrix:        11.340    11.340   0.2% |
   Construct density:             3544.444  3544.444  48.2% |------------------|
   Symmetrize density:               0.264     0.264   0.0% |
 Hamiltonian:                       23.704     0.003   0.0% |
  Atomic:                           10.926     0.120   0.0% |
   XC Correction:                   10.806    10.806   0.1% |
  Calculate atomic Hamiltonians:     1.729     1.729   0.0% |
  Communicate:                       0.000     0.000   0.0% |
  Hartree integrate/restrict:        0.706     0.706   0.0% |
  Poisson:                           4.995     0.422   0.0% |
   Communicate from 1D:              0.562     0.562   0.0% |
   Communicate from 2D:              0.511     0.511   0.0% |
   Communicate to 1D:                0.457     0.457   0.0% |
   Communicate to 2D:                0.586     0.586   0.0% |
   FFT 1D:                           0.962     0.962   0.0% |
   FFT 2D:                           1.496     1.496   0.0% |
  XC 3D grid:                        4.667     4.667   0.1% |
  vbar:                              0.678     0.678   0.0% |
 LCAO eigensolver:                3758.479     1.309   0.0% |
  Calculate projections:            86.509    86.509   1.2% |
  DenseAtomicCorrection:           242.934   242.934   3.3% ||
  Distribute overlap matrix:         2.889     2.889   0.0% |
  Orbital Layouts:                2607.836  2607.836  35.4% |-------------|
  Potential matrix:                751.545   751.545  10.2% |---|
  Sum over cells:                   65.457    65.457   0.9% |
ST tci:                              1.789     1.789   0.0% |
Set symmetry:                        0.000     0.000   0.0% |
TCI: Evaluate splines:               0.625     0.625   0.0% |
mktci:                               0.025     0.025   0.0% |
Other:                               3.899     3.899   0.1% |
-----------------------------------------------------------
Total:                                      7358.831 100.0%

Memory usage: 4.71 GiB
Date: Tue Mar  3 02:21:40 2026
