
  ___ ___ ___ _ _ _  
 |   |   |_  | | | | 
 | | | | | . | | | | 
 |__ |  _|___|_____|  25.7.0
 |___|_|             

User:   mikei@Z790-AORUS-ELITE-AX
Date:   Sat Feb 21 13:31:09 2026
Arch:   x86_64
Pid:    89048
CWD:    /home/mikei/Dokumenty/code/cemea/ocx
Python: 3.10.16
gpaw:   /home/mikei/.pyenv/versions/cemea-env/lib/python3.10/site-packages/gpaw
_gpaw:  /home/mikei/.pyenv/versions/cemea-env/lib/python3.10/site-packages/
        _gpaw.cpython-310-x86_64-linux-gnu.so
ase:    /home/mikei/.pyenv/versions/cemea-env/lib/python3.10/site-packages/ase (version 3.27.0)
numpy:  /home/mikei/.pyenv/versions/cemea-env/lib/python3.10/site-packages/numpy (version 2.2.6)
scipy:  /home/mikei/.pyenv/versions/cemea-env/lib/python3.10/site-packages/scipy (version 1.15.3)
libxc:  2.x.y
units:  Angstrom and eV
cores: 1
OpenMP: False
OMP_NUM_THREADS: 1

Input parameters:
  basis: dzp
  convergence: {density: 0.0001,
                eigenstates: 1e-05,
                energy: 1e-05}
  kpts: [4 4 1]
  mode: lcao

System changes: positions, numbers, cell, pbc, initial_charges, initial_magmoms 

Initialize ...

species:
  Mo:
    name: Molybdenum
    id: ac24daaf086600a00ce6d19a74574df1
    Z: 42.0
    valence: 14
    core: 28
    charge: 0.0
    file: /home/mikei/.pyenv/versions/cemea-env/lib/python3.10/site-packages/gpaw_data/setups/Mo.LDA.gz
    compensation charges: {type: gauss,
                           rc: 0.38,
                           lmax: 2}
    cutoffs: {filter: 2.16,
              core: 1.42}
    projectors:
      #              energy  rcut
      - 4s(2.00)   -64.384   1.238
      - 5s(1.00)    -4.319   1.238
      - 4p(6.00)   -38.595   1.296
      - 5p(0.00)    -1.161   1.296
      - 4d(5.00)    -3.933   1.296
      -  d          23.278   1.296
  
    # LCAO basis set for Mo:
    #   Name: dzp
    #   File: /home/mikei/.pyenv/versions/cemea-env/lib/python3.10/site-packages/gpaw_data/setups/Mo.dzp.basis.gz
    #   Number of radial functions: 11
    #   Number of spherical harmonics: 29
    #     l=0, rc=3.5469 Bohr: 4s-sz confined orbital
    #     l=0, rc=10.0469 Bohr: 5s-sz confined orbital
    #     l=1, rc=4.0781 Bohr: 4p-sz confined orbital
    #     l=1, rc=14.0938 Bohr: 5p-sz confined orbital
    #     l=2, rc=7.2031 Bohr: 4d-sz confined orbital
    #     l=0, rc=2.1250 Bohr: 4s-dz split-valence wave
    #     l=0, rc=6.1250 Bohr: 5s-dz split-valence wave
    #     l=1, rc=2.5469 Bohr: 4p-dz split-valence wave
    #     l=1, rc=8.7656 Bohr: 5p-dz split-valence wave
    #     l=2, rc=4.2344 Bohr: 4d-dz split-valence wave
    #     l=1, rc=10.0469 Bohr: p-type Gaussian polarization
    #   Number of RI-basis functions 0

  B:
    name: Boron
    id: 02e2e0e88ef95f403158802f6b0f4231
    Z: 5.0
    valence: 3
    core: 2
    charge: 0.0
    file: /home/mikei/.pyenv/versions/cemea-env/lib/python3.10/site-packages/gpaw_data/setups/B.LDA.gz
    compensation charges: {type: gauss,
                           rc: 0.20,
                           lmax: 2}
    cutoffs: {filter: 1.14,
              core: 1.42}
    projectors:
      #              energy  rcut
      - 2s(2.00)    -9.383   0.635
      - 2p(1.00)    -3.714   0.635
      -  s          17.828   0.635
      -  p          23.498   0.635
      -  d           0.000   0.635
  
    # LCAO basis set for B:
    #   Name: dzp
    #   File: /home/mikei/.pyenv/versions/cemea-env/lib/python3.10/site-packages/gpaw_data/setups/B.dzp.basis.gz
    #   Number of radial functions: 5
    #   Number of spherical harmonics: 13
    #     l=0, rc=6.6719 Bohr: 2s-sz confined orbital
    #     l=1, rc=8.2188 Bohr: 2p-sz confined orbital
    #     l=0, rc=3.7500 Bohr: 2s-dz split-valence wave
    #     l=1, rc=4.6094 Bohr: 2p-dz split-valence wave
    #     l=2, rc=8.2188 Bohr: d-type Gaussian polarization
    #   Number of RI-basis functions 0

Reference energy: -441404.480718  # eV

Spin-paired calculation

Convergence criteria:
 Maximum [total energy] change in last 3 cyles: 1e-05 eV / valence electron
 Maximum integral of absolute [dens]ity change: 0.0001 electrons / valence electron
 Maximum integral of absolute [eigenst]ate change: 1e-05 eV^2 / valence electron
 Maximum number of scf [iter]ations: 333
 (Square brackets indicate name in SCF output, whereas a 'c' in
 the SCF output indicates the quantity has converged.)

Symmetries present (total): 2

  ( 1  0  0)  ( 1  0  0)
  ( 0  1  0)  ( 0 -1  0)
  ( 0  0  1)  ( 0  0  1)

16 k-points: 4 x 4 x 1 Monkhorst-Pack grid
4 k-points in the irreducible part of the Brillouin zone
       k-points in crystal coordinates                weights
   0:     0.12500000    0.12500000    0.00000000          4/16
   1:     0.12500000    0.37500000    0.00000000          4/16
   2:     0.37500000    0.12500000    0.00000000          4/16
   3:     0.37500000    0.37500000    0.00000000          4/16

Wave functions: LCAO
  Diagonalizer: Serial LAPACK
  Atomic Correction: dense with blas
  Data-type: complex
 

Occupation numbers: Fermi-Dirac:
  width: 0.1000  # eV
 

Eigensolver
   LCAO using direct dense diagonalizer 

Densities:
  Coarse grid: 32*32*88 grid
  Fine grid: 64*64*176 grid
  Total Charge: 0.000000 

Density mixing:
  Method: separate
  Backend: pulay
  Linear mixing parameter: 0.05
  old densities: 5
  Damping of long wavelength oscillations: 50 

Hamiltonian:
  XC and Coulomb potentials evaluated on a 64*64*176 grid
  Using the LDA Exchange-Correlation functional
  Interpolation: tri-quintic (5. degree polynomial)
  Poisson solver: FastPoissonSolver using
    Stencil: 6*3+1=19 point O(h^6) finite-difference Laplacian
    FFT axes: [np.int64(0), np.int64(1), np.int64(2)]
    FST axes: []
 

Memory estimate:
  Process memory now: 4595.48 MiB
  Calculator: 116.23 MiB
    Density: 48.30 MiB
      Arrays: 17.88 MiB
      Localized functions: 23.55 MiB
      Mixer: 6.88 MiB
    Hamiltonian: 13.21 MiB
      Arrays: 11.69 MiB
      XC: 0.00 MiB
      Poisson: 0.00 MiB
      vbar: 1.52 MiB
    Wavefunctions: 54.72 MiB
      C [qnM]: 0.36 MiB
      S, T [2 x qmm]: 2.46 MiB
      P [aqMi]: 0.05 MiB
      BasisFunctions: 51.84 MiB
      Eigensolver: 0.00 MiB

Total number of cores used: 1

Number of atoms: 6
Number of atomic orbitals: 142
Number of bands in calculation: 42
Number of valence electrons: 62
Bands to converge: occupied

... initialized

Initializing position-dependent things.

Density initialized from atomic densities
     .--------------.  
    /|              |  
   / |              |  
  /  |              |  
 *   |              |  
 |   |              |  
 |   |              |  
 |   |              |  
 |   |              |  
 |   |              |  
 |   |              |  
 |   |         B    |  
 |   |              |  
 |   |       B      |  
 | Mo|    Mo        |  
 |   |              |  
 Mo  |  Mo          |  
 |   |              |  
 |   |              |  
 |   |              |  
 |   |              |  
 |   |              |  
 |   .--------------.  
 |  /              /   
 | /              /    
 |/              /     
 *--------------*      

Atomic positions and initial magnetic moments

Positions:
   0 Mo     0.000000    0.000000    8.000000    ( 0.0000,  0.0000,  0.0000)
   1 Mo     0.000000    3.050000    8.000000    ( 0.0000,  0.0000,  0.0000)
   2 Mo     3.050000    0.000000    8.000000    ( 0.0000,  0.0000,  0.0000)
   3 B      4.575000    1.525000    9.525000    ( 0.0000,  0.0000,  0.0000)
   4 Mo     3.050000    3.050000    8.000000    ( 0.0000,  0.0000,  0.0000)
   5 B      4.575000    4.575000    9.525000    ( 0.0000,  0.0000,  0.0000)

Unit cell:
           periodic     x           y           z      points  spacing
  1. axis:    yes    6.100000    0.000000    0.000000    32     0.1906
  2. axis:    yes    0.000000    6.100000    0.000000    32     0.1906
  3. axis:    yes    0.000000    0.000000   17.525000    88     0.1991

  Lengths:   6.100000   6.100000  17.525000
  Angles:   90.000000  90.000000  90.000000

Effective grid spacing dv^(1/3) = 0.1934

     iter     time        total  log10-change:
                         energy   eigst   dens
iter:   1 13:31:12   -46.478748        c
iter:   2 13:31:16   -43.829309        c -0.90
iter:   3 13:31:21   -41.860539        c -1.00
iter:   4 13:31:25   -40.028371        c -1.11
iter:   5 13:31:30   -39.863823        c -1.49
iter:   6 13:31:34   -39.700010        c -1.62
iter:   7 13:31:37   -39.634467        c -1.91
iter:   8 13:31:41   -39.629885        c -2.09
iter:   9 13:31:46   -39.620015        c -2.16
iter:  10 13:31:51   -39.615717        c -2.51
iter:  11 13:31:56   -39.614271        c -2.80
iter:  12 13:32:01   -39.614631        c -3.03
iter:  13 13:32:06   -39.614665c       c -3.17
iter:  14 13:32:11   -39.614295c       c -3.24
iter:  15 13:32:17   -39.614234c       c -3.44
iter:  16 13:32:21   -39.614293c       c -3.51
iter:  17 13:32:24   -39.614301c       c -3.74
iter:  18 13:32:28   -39.614274c       c -3.82
iter:  19 13:32:31   -39.614260c       c -4.35c

Converged after 19 iterations.

Dipole moment: (-3.739205, -3.915373, -0.138820) |e|*Ang

Energy contributions relative to reference atoms: (reference = -441404.480718)

Kinetic:        -99.210673
Potential:      +66.298432
External:        +0.000000
XC:              -6.943124
Entropy (-ST):   -0.347054
Local:           +0.414632
SIC:             +0.000000
--------------------------
Free energy:    -39.787787
Extrapolated:   -39.614260

Showing only first 2 kpts
 Kpt  Band  Eigenvalues  Occupancy
  0    29     -3.15429    1.44914
  0    30     -3.02120    0.82019
  0    31     -2.75964    0.09675
  0    32     -2.49553    0.00722

  1    29     -3.46256    1.96575
  1    30     -3.38091    1.92415
  1    31     -2.77951    0.11677
  1    32     -2.72333    0.06829


Fermi level: -3.05756

No gap
No difference between direct/indirect transitions
Timing:                              incl.     excl.
-----------------------------------------------------------
Basic WFS set positions:             0.000     0.000   0.0% |
Basis functions set positions:       0.041     0.041   0.1% |
LCAO WFS Initialize:                 0.110     0.013   0.0% |
 Hamiltonian:                        0.097     0.000   0.0% |
  Atomic:                            0.027     0.000   0.0% |
   XC Correction:                    0.027     0.027   0.0% |
  Calculate atomic Hamiltonians:     0.003     0.003   0.0% |
  Communicate:                       0.000     0.000   0.0% |
  Hartree integrate/restrict:        0.003     0.003   0.0% |
  Initialize Hamiltonian:            0.000     0.000   0.0% |
  Poisson:                           0.039     0.003   0.0% |
   Communicate from 1D:              0.005     0.005   0.0% |
   Communicate from 2D:              0.005     0.005   0.0% |
   Communicate to 1D:                0.004     0.004   0.0% |
   Communicate to 2D:                0.005     0.005   0.0% |
   FFT 1D:                           0.005     0.005   0.0% |
   FFT 2D:                           0.012     0.012   0.0% |
  XC 3D grid:                        0.024     0.024   0.0% |
  vbar:                              0.001     0.001   0.0% |
P tci:                               0.047     0.047   0.1% |
SCF-cycle:                          81.045     0.019   0.0% |
 Density:                           36.296     0.000   0.0% |
  Atomic density matrices:           0.009     0.009   0.0% |
  Mix:                               1.604     1.604   2.0% ||
  Multipole moments:                 0.001     0.001   0.0% |
  Normalize:                         0.001     0.001   0.0% |
  Pseudo density:                   34.681     0.003   0.0% |
   Calculate density matrix:         0.387     0.387   0.5% |
   Construct density:               34.253    34.253  41.9% |----------------|
   Symmetrize density:               0.038     0.038   0.0% |
 Hamiltonian:                        2.480     0.001   0.0% |
  Atomic:                            0.508     0.008   0.0% |
   XC Correction:                    0.500     0.500   0.6% |
  Calculate atomic Hamiltonians:     0.056     0.056   0.1% |
  Communicate:                       0.000     0.000   0.0% |
  Hartree integrate/restrict:        0.071     0.071   0.1% |
  Poisson:                           0.718     0.053   0.1% |
   Communicate from 1D:              0.074     0.074   0.1% |
   Communicate from 2D:              0.090     0.090   0.1% |
   Communicate to 1D:                0.105     0.105   0.1% |
   Communicate to 2D:                0.095     0.095   0.1% |
   FFT 1D:                           0.095     0.095   0.1% |
   FFT 2D:                           0.206     0.206   0.3% |
  XC 3D grid:                        0.960     0.960   1.2% |
  vbar:                              0.167     0.167   0.2% |
 LCAO eigensolver:                  42.250     0.004   0.0% |
  Calculate projections:             0.466     0.466   0.6% |
  DenseAtomicCorrection:             3.444     3.444   4.2% |-|
  Distribute overlap matrix:         0.003     0.003   0.0% |
  Orbital Layouts:                  29.025    29.025  35.5% |-------------|
  Potential matrix:                  8.665     8.665  10.6% |---|
  Sum over cells:                    0.643     0.643   0.8% |
ST tci:                              0.073     0.073   0.1% |
Set symmetry:                        0.001     0.001   0.0% |
TCI: Evaluate splines:               0.125     0.125   0.2% |
mktci:                               0.003     0.003   0.0% |
Other:                               0.257     0.257   0.3% |
-----------------------------------------------------------
Total:                                        81.702 100.0%

Memory usage: 4.49 GiB
Date: Sat Feb 21 13:32:31 2026
