
  ___ ___ ___ _ _ _  
 |   |   |_  | | | | 
 | | | | | . | | | | 
 |__ |  _|___|_____|  25.7.0
 |___|_|             

User:   mikei@Z790-AORUS-ELITE-AX
Date:   Sat Feb 21 13:32:31 2026
Arch:   x86_64
Pid:    89048
CWD:    /home/mikei/Dokumenty/code/cemea/ocx
Python: 3.10.16
gpaw:   /home/mikei/.pyenv/versions/cemea-env/lib/python3.10/site-packages/gpaw
_gpaw:  /home/mikei/.pyenv/versions/cemea-env/lib/python3.10/site-packages/
        _gpaw.cpython-310-x86_64-linux-gnu.so
ase:    /home/mikei/.pyenv/versions/cemea-env/lib/python3.10/site-packages/ase (version 3.27.0)
numpy:  /home/mikei/.pyenv/versions/cemea-env/lib/python3.10/site-packages/numpy (version 2.2.6)
scipy:  /home/mikei/.pyenv/versions/cemea-env/lib/python3.10/site-packages/scipy (version 1.15.3)
libxc:  2.x.y
units:  Angstrom and eV
cores: 1
OpenMP: False
OMP_NUM_THREADS: 1

Input parameters:
  basis: dzp
  convergence: {density: 0.0001,
                eigenstates: 1e-05,
                energy: 1e-05}
  kpts: [4 4 1]
  mode: lcao

System changes: positions, numbers, cell, pbc, initial_charges, initial_magmoms 

Initialize ...

species:
  Mo:
    name: Molybdenum
    id: ac24daaf086600a00ce6d19a74574df1
    Z: 42.0
    valence: 14
    core: 28
    charge: 0.0
    file: /home/mikei/.pyenv/versions/cemea-env/lib/python3.10/site-packages/gpaw_data/setups/Mo.LDA.gz
    compensation charges: {type: gauss,
                           rc: 0.38,
                           lmax: 2}
    cutoffs: {filter: 2.16,
              core: 1.42}
    projectors:
      #              energy  rcut
      - 4s(2.00)   -64.384   1.238
      - 5s(1.00)    -4.319   1.238
      - 4p(6.00)   -38.595   1.296
      - 5p(0.00)    -1.161   1.296
      - 4d(5.00)    -3.933   1.296
      -  d          23.278   1.296
  
    # LCAO basis set for Mo:
    #   Name: dzp
    #   File: /home/mikei/.pyenv/versions/cemea-env/lib/python3.10/site-packages/gpaw_data/setups/Mo.dzp.basis.gz
    #   Number of radial functions: 11
    #   Number of spherical harmonics: 29
    #     l=0, rc=3.5469 Bohr: 4s-sz confined orbital
    #     l=0, rc=10.0469 Bohr: 5s-sz confined orbital
    #     l=1, rc=4.0781 Bohr: 4p-sz confined orbital
    #     l=1, rc=14.0938 Bohr: 5p-sz confined orbital
    #     l=2, rc=7.2031 Bohr: 4d-sz confined orbital
    #     l=0, rc=2.1250 Bohr: 4s-dz split-valence wave
    #     l=0, rc=6.1250 Bohr: 5s-dz split-valence wave
    #     l=1, rc=2.5469 Bohr: 4p-dz split-valence wave
    #     l=1, rc=8.7656 Bohr: 5p-dz split-valence wave
    #     l=2, rc=4.2344 Bohr: 4d-dz split-valence wave
    #     l=1, rc=10.0469 Bohr: p-type Gaussian polarization
    #   Number of RI-basis functions 0

  B:
    name: Boron
    id: 02e2e0e88ef95f403158802f6b0f4231
    Z: 5.0
    valence: 3
    core: 2
    charge: 0.0
    file: /home/mikei/.pyenv/versions/cemea-env/lib/python3.10/site-packages/gpaw_data/setups/B.LDA.gz
    compensation charges: {type: gauss,
                           rc: 0.20,
                           lmax: 2}
    cutoffs: {filter: 1.14,
              core: 1.42}
    projectors:
      #              energy  rcut
      - 2s(2.00)    -9.383   0.635
      - 2p(1.00)    -3.714   0.635
      -  s          17.828   0.635
      -  p          23.498   0.635
      -  d           0.000   0.635
  
    # LCAO basis set for B:
    #   Name: dzp
    #   File: /home/mikei/.pyenv/versions/cemea-env/lib/python3.10/site-packages/gpaw_data/setups/B.dzp.basis.gz
    #   Number of radial functions: 5
    #   Number of spherical harmonics: 13
    #     l=0, rc=6.6719 Bohr: 2s-sz confined orbital
    #     l=1, rc=8.2188 Bohr: 2p-sz confined orbital
    #     l=0, rc=3.7500 Bohr: 2s-dz split-valence wave
    #     l=1, rc=4.6094 Bohr: 2p-dz split-valence wave
    #     l=2, rc=8.2188 Bohr: d-type Gaussian polarization
    #   Number of RI-basis functions 0

  H:
    name: Hydrogen
    id: 4766778ce56282eaa64abeb28b7c1de3
    Z: 1.0
    valence: 1
    core: 0
    charge: 0.0
    file: /home/mikei/.pyenv/versions/cemea-env/lib/python3.10/site-packages/gpaw_data/setups/H.LDA.gz
    compensation charges: {type: gauss,
                           rc: 0.15,
                           lmax: 2}
    cutoffs: {filter: 0.85,
              core: 0.53}
    projectors:
      #              energy  rcut
      - 1s(1.00)    -6.353   0.476
      -  s          20.858   0.476
      -  p           0.000   0.476
  
    # LCAO basis set for H:
    #   Name: dzp
    #   File: /home/mikei/.pyenv/versions/cemea-env/lib/python3.10/site-packages/gpaw_data/setups/H.dzp.basis.gz
    #   Number of radial functions: 3
    #   Number of spherical harmonics: 5
    #     l=0, rc=6.4219 Bohr: 1s-sz confined orbital
    #     l=0, rc=3.6094 Bohr: 1s-dz split-valence wave
    #     l=1, rc=6.4219 Bohr: p-type Gaussian polarization
    #   Number of RI-basis functions 0

Reference energy: -441416.609677  # eV

Spin-paired calculation

Convergence criteria:
 Maximum [total energy] change in last 3 cyles: 1e-05 eV / valence electron
 Maximum integral of absolute [dens]ity change: 0.0001 electrons / valence electron
 Maximum integral of absolute [eigenst]ate change: 1e-05 eV^2 / valence electron
 Maximum number of scf [iter]ations: 333
 (Square brackets indicate name in SCF output, whereas a 'c' in
 the SCF output indicates the quantity has converged.)

Symmetries present (total): 1

  ( 1  0  0)
  ( 0  1  0)
  ( 0  0  1)

16 k-points: 4 x 4 x 1 Monkhorst-Pack grid
8 k-points in the irreducible part of the Brillouin zone
       k-points in crystal coordinates                weights
   0:     0.12500000   -0.37500000    0.00000000          2/16
   1:     0.12500000   -0.12500000    0.00000000          2/16
   2:     0.12500000    0.12500000    0.00000000          2/16
   3:     0.12500000    0.37500000    0.00000000          2/16
   4:     0.37500000   -0.37500000    0.00000000          2/16
   5:     0.37500000   -0.12500000    0.00000000          2/16
   6:     0.37500000    0.12500000    0.00000000          2/16
   7:     0.37500000    0.37500000    0.00000000          2/16

Wave functions: LCAO
  Diagonalizer: Serial LAPACK
  Atomic Correction: dense with blas
  Data-type: complex
 

Occupation numbers: Fermi-Dirac:
  width: 0.1000  # eV
 

Eigensolver
   LCAO using direct dense diagonalizer 

Densities:
  Coarse grid: 32*32*88 grid
  Fine grid: 64*64*176 grid
  Total Charge: 0.000000 

Density mixing:
  Method: separate
  Backend: pulay
  Linear mixing parameter: 0.05
  old densities: 5
  Damping of long wavelength oscillations: 50 

Hamiltonian:
  XC and Coulomb potentials evaluated on a 64*64*176 grid
  Using the LDA Exchange-Correlation functional
  Interpolation: tri-quintic (5. degree polynomial)
  Poisson solver: FastPoissonSolver using
    Stencil: 6*3+1=19 point O(h^6) finite-difference Laplacian
    FFT axes: [np.int64(0), np.int64(1), np.int64(2)]
    FST axes: []
 

Memory estimate:
  Process memory now: 4595.48 MiB
  Calculator: 120.52 MiB
    Density: 48.58 MiB
      Arrays: 17.88 MiB
      Localized functions: 23.83 MiB
      Mixer: 6.88 MiB
    Hamiltonian: 13.23 MiB
      Arrays: 11.69 MiB
      XC: 0.00 MiB
      Poisson: 0.00 MiB
      vbar: 1.55 MiB
    Wavefunctions: 58.71 MiB
      C [qnM]: 0.75 MiB
      S, T [2 x qmm]: 5.28 MiB
      P [aqMi]: 0.12 MiB
      BasisFunctions: 52.56 MiB
      Eigensolver: 0.00 MiB

Total number of cores used: 1

Number of atoms: 7
Number of atomic orbitals: 147
Number of bands in calculation: 42
Number of valence electrons: 63
Bands to converge: occupied

... initialized

Initializing position-dependent things.

Density initialized from atomic densities
     .--------------.  
    /|              |  
   / |              |  
  /  |              |  
 *   |              |  
 |   |              |  
 |   |              |  
 |   |              |  
 |   |              |  
 |   |              |  
 |   |              |  
 |   |   H     B    |  
 |   |              |  
 |   |       B      |  
 | Mo|    Mo        |  
 |   |              |  
 Mo  |  Mo          |  
 |   |              |  
 |   |              |  
 |   |              |  
 |   |              |  
 |   |              |  
 |   .--------------.  
 |  /              /   
 | /              /    
 |/              /     
 *--------------*      

Atomic positions and initial magnetic moments

Positions:
   0 Mo     0.000000    0.000000    8.000000    ( 0.0000,  0.0000,  0.0000)
   1 Mo     0.000000    3.050000    8.000000    ( 0.0000,  0.0000,  0.0000)
   2 Mo     3.050000    0.000000    8.000000    ( 0.0000,  0.0000,  0.0000)
   3 B      4.575000    1.525000    9.525000    ( 0.0000,  0.0000,  0.0000)
   4 Mo     3.050000    3.050000    8.000000    ( 0.0000,  0.0000,  0.0000)
   5 B      4.575000    4.575000    9.525000    ( 0.0000,  0.0000,  0.0000)
   6 H      2.541667    2.033333   11.025000    ( 0.0000,  0.0000,  0.0000)

Unit cell:
           periodic     x           y           z      points  spacing
  1. axis:    yes    6.100000    0.000000    0.000000    32     0.1906
  2. axis:    yes    0.000000    6.100000    0.000000    32     0.1906
  3. axis:    yes    0.000000    0.000000   17.525000    88     0.1991

  Lengths:   6.100000   6.100000  17.525000
  Angles:   90.000000  90.000000  90.000000

Effective grid spacing dv^(1/3) = 0.1934

     iter     time        total  log10-change:
                         energy   eigst   dens
iter:   1 13:32:37   -47.971201        c
iter:   2 13:32:45   -45.034738        c -0.89
iter:   3 13:32:54   -43.360021        c -1.01
iter:   4 13:33:04   -41.208567        c -1.09
iter:   5 13:33:14   -41.193459        c -1.44
iter:   6 13:33:23   -41.132979        c -1.54
iter:   7 13:33:31   -40.944947        c -1.60
iter:   8 13:33:39   -40.929324        c -1.94
iter:   9 13:33:48   -40.918213        c -2.01
iter:  10 13:33:57   -40.907423        c -2.12
iter:  11 13:34:06   -40.906596        c -2.32
iter:  12 13:34:17   -40.904505        c -2.40
iter:  13 13:34:26   -40.903585        c -2.55
iter:  14 13:34:33   -40.902995        c -2.65
iter:  15 13:34:41   -40.902509        c -2.71
iter:  16 13:34:50   -40.901850        c -2.85
iter:  17 13:35:00   -40.901700        c -3.23
iter:  18 13:35:11   -40.901667c       c -3.40
iter:  19 13:35:20   -40.901632c       c -3.45
iter:  20 13:35:30   -40.901632c       c -3.57
iter:  21 13:35:40   -40.901643c       c -3.79
iter:  22 13:35:50   -40.901658c       c -3.93
iter:  23 13:35:59   -40.901668c       c -4.02c

Converged after 23 iterations.

Dipole moment: (-3.740597, -3.921494, -0.148422) |e|*Ang

Energy contributions relative to reference atoms: (reference = -441416.609677)

Kinetic:       -101.852759
Potential:      +67.916455
External:        +0.000000
XC:              -7.196801
Entropy (-ST):   -0.381081
Local:           +0.421978
SIC:             +0.000000
--------------------------
Free energy:    -41.092208
Extrapolated:   -40.901668

Showing only first 2 kpts
 Kpt  Band  Eigenvalues  Occupancy
  0    29     -3.50746    1.97531
  0    30     -3.44339    1.95366
  0    31     -2.95855    0.49690
  0    32     -2.76943    0.09502

  1    29     -3.28640    1.79534
  1    30     -3.15191    1.39130
  1    31     -2.88567    0.27512
  1    32     -2.73020    0.06519


Fermi level: -3.06924

No gap
No difference between direct/indirect transitions
Timing:                              incl.     excl.
-----------------------------------------------------------
Basic WFS set positions:             0.000     0.000   0.0% |
Basis functions set positions:       0.041     0.041   0.0% |
LCAO WFS Initialize:                 0.112     0.013   0.0% |
 Hamiltonian:                        0.099     0.000   0.0% |
  Atomic:                            0.029     0.000   0.0% |
   XC Correction:                    0.029     0.029   0.0% |
  Calculate atomic Hamiltonians:     0.003     0.003   0.0% |
  Communicate:                       0.000     0.000   0.0% |
  Hartree integrate/restrict:        0.003     0.003   0.0% |
  Initialize Hamiltonian:            0.000     0.000   0.0% |
  Poisson:                           0.038     0.003   0.0% |
   Communicate from 1D:              0.005     0.005   0.0% |
   Communicate from 2D:              0.005     0.005   0.0% |
   Communicate to 1D:                0.004     0.004   0.0% |
   Communicate to 2D:                0.005     0.005   0.0% |
   FFT 1D:                           0.005     0.005   0.0% |
   FFT 2D:                           0.011     0.011   0.0% |
  XC 3D grid:                        0.024     0.024   0.0% |
  vbar:                              0.001     0.001   0.0% |
P tci:                               0.070     0.070   0.0% |
SCF-cycle:                         207.624     0.046   0.0% |
 Density:                           87.674     0.000   0.0% |
  Atomic density matrices:           0.015     0.015   0.0% |
  Mix:                               2.120     2.120   1.0% |
  Multipole moments:                 0.002     0.002   0.0% |
  Normalize:                         0.001     0.001   0.0% |
  Pseudo density:                   85.536     0.005   0.0% |
   Calculate density matrix:         0.487     0.487   0.2% |
   Construct density:               85.044    85.044  40.8% |---------------|
   Symmetrize density:               0.000     0.000   0.0% |
 Hamiltonian:                        3.270     0.001   0.0% |
  Atomic:                            0.670     0.011   0.0% |
   XC Correction:                    0.659     0.659   0.3% |
  Calculate atomic Hamiltonians:     0.069     0.069   0.0% |
  Communicate:                       0.000     0.000   0.0% |
  Hartree integrate/restrict:        0.076     0.076   0.0% |
  Poisson:                           0.824     0.066   0.0% |
   Communicate from 1D:              0.078     0.078   0.0% |
   Communicate from 2D:              0.090     0.090   0.0% |
   Communicate to 1D:                0.145     0.145   0.1% |
   Communicate to 2D:                0.101     0.101   0.0% |
   FFT 1D:                           0.097     0.097   0.0% |
   FFT 2D:                           0.248     0.248   0.1% |
  XC 3D grid:                        1.401     1.401   0.7% |
  vbar:                              0.228     0.228   0.1% |
 LCAO eigensolver:                 116.634     0.010   0.0% |
  Calculate projections:             0.866     0.866   0.4% |
  DenseAtomicCorrection:            10.354    10.354   5.0% |-|
  Distribute overlap matrix:         0.007     0.007   0.0% |
  Orbital Layouts:                  92.795    92.795  44.5% |-----------------|
  Potential matrix:                 10.791    10.791   5.2% |-|
  Sum over cells:                    1.810     1.810   0.9% |
ST tci:                              0.081     0.081   0.0% |
Set symmetry:                        0.000     0.000   0.0% |
TCI: Evaluate splines:               0.169     0.169   0.1% |
mktci:                               0.003     0.003   0.0% |
Other:                               0.293     0.293   0.1% |
-----------------------------------------------------------
Total:                                       208.394 100.0%

Memory usage: 4.49 GiB
Date: Sat Feb 21 13:35:59 2026
