
  ___ ___ ___ _ _ _  
 |   |   |_  | | | | 
 | | | | | . | | | | 
 |__ |  _|___|_____|  25.7.0
 |___|_|             

User:   mikei@Z790-AORUS-ELITE-AX
Date:   Thu Mar  5 00:19:06 2026
Arch:   x86_64
Pid:    89048
CWD:    /home/mikei/Dokumenty/code/cemea/ocx
Python: 3.10.16
gpaw:   /home/mikei/.pyenv/versions/cemea-env/lib/python3.10/site-packages/gpaw
_gpaw:  /home/mikei/.pyenv/versions/cemea-env/lib/python3.10/site-packages/
        _gpaw.cpython-310-x86_64-linux-gnu.so
ase:    /home/mikei/.pyenv/versions/cemea-env/lib/python3.10/site-packages/ase (version 3.27.0)
numpy:  /home/mikei/.pyenv/versions/cemea-env/lib/python3.10/site-packages/numpy (version 2.2.6)
scipy:  /home/mikei/.pyenv/versions/cemea-env/lib/python3.10/site-packages/scipy (version 1.15.3)
libxc:  2.x.y
units:  Angstrom and eV
cores: 1
OpenMP: False
OMP_NUM_THREADS: 1

Input parameters:
  basis: dzp
  convergence: {density: 0.0001,
                eigenstates: 1e-05,
                energy: 1e-05}
  kpts: [4 4 1]
  mode: lcao

System changes: positions, numbers, cell, pbc, initial_charges, initial_magmoms 

Initialize ...

species:
  Ni:
    name: Nickel
    id: 1802175e8de9ea26d9f4394ec1a7d564
    Z: 28.0
    valence: 16
    core: 12
    charge: 0.0
    file: /home/mikei/.pyenv/versions/cemea-env/lib/python3.10/site-packages/gpaw_data/setups/Ni.LDA.gz
    compensation charges: {type: gauss,
                           rc: 0.36,
                           lmax: 2}
    cutoffs: {filter: 2.14,
              core: 1.98}
    projectors:
      #              energy  rcut
      - 4s(2.00)    -5.858   1.164
      - 3p(6.00)   -71.266   1.207
      - 4p(0.00)    -1.338   1.207
      - 3d(8.00)    -9.141   1.138
      -  s          21.353   1.164
      -  d          18.071   1.138
  
    # LCAO basis set for Ni:
    #   Name: dzp
    #   File: /home/mikei/.pyenv/versions/cemea-env/lib/python3.10/site-packages/gpaw_data/setups/Ni.dzp.basis.gz
    #   Number of radial functions: 9
    #   Number of spherical harmonics: 27
    #     l=0, rc=8.5156 Bohr: 4s-sz confined orbital
    #     l=1, rc=2.9375 Bohr: 3p-sz confined orbital
    #     l=1, rc=12.4062 Bohr: 4p-sz confined orbital
    #     l=2, rc=4.6875 Bohr: 3d-sz confined orbital
    #     l=0, rc=4.9688 Bohr: 4s-dz split-valence wave
    #     l=1, rc=2.0781 Bohr: 3p-dz split-valence wave
    #     l=1, rc=7.5469 Bohr: 4p-dz split-valence wave
    #     l=2, rc=2.9375 Bohr: 3d-dz split-valence wave
    #     l=1, rc=8.5156 Bohr: p-type Gaussian polarization
    #   Number of RI-basis functions 0

  Mo:
    name: Molybdenum
    id: ac24daaf086600a00ce6d19a74574df1
    Z: 42.0
    valence: 14
    core: 28
    charge: 0.0
    file: /home/mikei/.pyenv/versions/cemea-env/lib/python3.10/site-packages/gpaw_data/setups/Mo.LDA.gz
    compensation charges: {type: gauss,
                           rc: 0.38,
                           lmax: 2}
    cutoffs: {filter: 2.16,
              core: 1.42}
    projectors:
      #              energy  rcut
      - 4s(2.00)   -64.384   1.238
      - 5s(1.00)    -4.319   1.238
      - 4p(6.00)   -38.595   1.296
      - 5p(0.00)    -1.161   1.296
      - 4d(5.00)    -3.933   1.296
      -  d          23.278   1.296
  
    # LCAO basis set for Mo:
    #   Name: dzp
    #   File: /home/mikei/.pyenv/versions/cemea-env/lib/python3.10/site-packages/gpaw_data/setups/Mo.dzp.basis.gz
    #   Number of radial functions: 11
    #   Number of spherical harmonics: 29
    #     l=0, rc=3.5469 Bohr: 4s-sz confined orbital
    #     l=0, rc=10.0469 Bohr: 5s-sz confined orbital
    #     l=1, rc=4.0781 Bohr: 4p-sz confined orbital
    #     l=1, rc=14.0938 Bohr: 5p-sz confined orbital
    #     l=2, rc=7.2031 Bohr: 4d-sz confined orbital
    #     l=0, rc=2.1250 Bohr: 4s-dz split-valence wave
    #     l=0, rc=6.1250 Bohr: 5s-dz split-valence wave
    #     l=1, rc=2.5469 Bohr: 4p-dz split-valence wave
    #     l=1, rc=8.7656 Bohr: 5p-dz split-valence wave
    #     l=2, rc=4.2344 Bohr: 4d-dz split-valence wave
    #     l=1, rc=10.0469 Bohr: p-type Gaussian polarization
    #   Number of RI-basis functions 0

  B:
    name: Boron
    id: 02e2e0e88ef95f403158802f6b0f4231
    Z: 5.0
    valence: 3
    core: 2
    charge: 0.0
    file: /home/mikei/.pyenv/versions/cemea-env/lib/python3.10/site-packages/gpaw_data/setups/B.LDA.gz
    compensation charges: {type: gauss,
                           rc: 0.20,
                           lmax: 2}
    cutoffs: {filter: 1.14,
              core: 1.42}
    projectors:
      #              energy  rcut
      - 2s(2.00)    -9.383   0.635
      - 2p(1.00)    -3.714   0.635
      -  s          17.828   0.635
      -  p          23.498   0.635
      -  d           0.000   0.635
  
    # LCAO basis set for B:
    #   Name: dzp
    #   File: /home/mikei/.pyenv/versions/cemea-env/lib/python3.10/site-packages/gpaw_data/setups/B.dzp.basis.gz
    #   Number of radial functions: 5
    #   Number of spherical harmonics: 13
    #     l=0, rc=6.6719 Bohr: 2s-sz confined orbital
    #     l=1, rc=8.2188 Bohr: 2p-sz confined orbital
    #     l=0, rc=3.7500 Bohr: 2s-dz split-valence wave
    #     l=1, rc=4.6094 Bohr: 2p-dz split-valence wave
    #     l=2, rc=8.2188 Bohr: d-type Gaussian polarization
    #   Number of RI-basis functions 0

  Ag:
    name: Silver
    id: 5bcdc129af383d1b52b015d30ddad325
    Z: 47.0
    valence: 17
    core: 30
    charge: 0.0
    file: /home/mikei/.pyenv/versions/cemea-env/lib/python3.10/site-packages/gpaw_data/setups/Ag.LDA.gz
    compensation charges: {type: gauss,
                           rc: 0.40,
                           lmax: 2}
    cutoffs: {filter: 2.35,
              core: 2.19}
    projectors:
      #              energy  rcut
      - 5s(1.00)    -4.708   1.286
      - 4p(6.00)   -58.678   1.328
      - 5p(0.00)    -0.844   1.328
      - 4d(10.00)    -7.664   1.180
      -  s          22.503   1.286
      -  d          19.547   1.180
  
    # LCAO basis set for Ag:
    #   Name: dzp
    #   File: /home/mikei/.pyenv/versions/cemea-env/lib/python3.10/site-packages/gpaw_data/setups/Ag.dzp.basis.gz
    #   Number of radial functions: 9
    #   Number of spherical harmonics: 27
    #     l=0, rc=9.2812 Bohr: 5s-sz confined orbital
    #     l=1, rc=3.3750 Bohr: 4p-sz confined orbital
    #     l=1, rc=14.2344 Bohr: 5p-sz confined orbital
    #     l=2, rc=5.4531 Bohr: 4d-sz confined orbital
    #     l=0, rc=5.5156 Bohr: 5s-dz split-valence wave
    #     l=1, rc=2.3281 Bohr: 4p-dz split-valence wave
    #     l=1, rc=8.7656 Bohr: 5p-dz split-valence wave
    #     l=2, rc=3.2656 Bohr: 4d-dz split-valence wave
    #     l=1, rc=9.2812 Bohr: p-type Gaussian polarization
    #   Number of RI-basis functions 0

Reference energy: -2218480.225109  # eV

Spin-paired calculation

Convergence criteria:
 Maximum [total energy] change in last 3 cyles: 1e-05 eV / valence electron
 Maximum integral of absolute [dens]ity change: 0.0001 electrons / valence electron
 Maximum integral of absolute [eigenst]ate change: 1e-05 eV^2 / valence electron
 Maximum number of scf [iter]ations: 333
 (Square brackets indicate name in SCF output, whereas a 'c' in
 the SCF output indicates the quantity has converged.)

Symmetries present (total): 1

  ( 1  0  0)
  ( 0  1  0)
  ( 0  0  1)

16 k-points: 4 x 4 x 1 Monkhorst-Pack grid
8 k-points in the irreducible part of the Brillouin zone
       k-points in crystal coordinates                weights
   0:     0.12500000   -0.37500000    0.00000000          2/16
   1:     0.12500000   -0.12500000    0.00000000          2/16
   2:     0.12500000    0.12500000    0.00000000          2/16
   3:     0.12500000    0.37500000    0.00000000          2/16
   4:     0.37500000   -0.37500000    0.00000000          2/16
   5:     0.37500000   -0.12500000    0.00000000          2/16
   6:     0.37500000    0.12500000    0.00000000          2/16
   7:     0.37500000    0.37500000    0.00000000          2/16

Wave functions: LCAO
  Diagonalizer: Serial LAPACK
  Atomic Correction: dense with blas
  Data-type: complex
 

Occupation numbers: Fermi-Dirac:
  width: 0.1000  # eV
 

Eigensolver
   LCAO using direct dense diagonalizer 

Densities:
  Coarse grid: 32*32*128 grid
  Fine grid: 64*64*256 grid
  Total Charge: 0.000000 

Density mixing:
  Method: separate
  Backend: pulay
  Linear mixing parameter: 0.05
  old densities: 5
  Damping of long wavelength oscillations: 50 

Hamiltonian:
  XC and Coulomb potentials evaluated on a 64*64*256 grid
  Using the LDA Exchange-Correlation functional
  Interpolation: tri-quintic (5. degree polynomial)
  Poisson solver: FastPoissonSolver using
    Stencil: 8*3+1=25 point O(h^6) finite-difference Laplacian
    FFT axes: [np.int64(0), np.int64(1), np.int64(2)]
    FST axes: []
 

Memory estimate:
  Process memory now: 4818.40 MiB
  Calculator: 876.29 MiB
    Density: 187.35 MiB
      Arrays: 26.00 MiB
      Localized functions: 151.35 MiB
      Mixer: 10.00 MiB
    Hamiltonian: 28.42 MiB
      Arrays: 17.00 MiB
      XC: 0.00 MiB
      Poisson: 0.00 MiB
      vbar: 11.42 MiB
    Wavefunctions: 660.52 MiB
      C [qnM]: 59.90 MiB
      S, T [2 x qmm]: 348.06 MiB
      P [aqMi]: 7.36 MiB
      BasisFunctions: 245.20 MiB
      Eigensolver: 0.00 MiB

Total number of cores used: 1

Number of atoms: 46
Number of atomic orbitals: 1194
Number of bands in calculation: 411
Number of valence electrons: 678
Bands to converge: occupied

... initialized

Initializing position-dependent things.

Density initialized from atomic densities
                                         
                                         
                                         
                                         
                                         
                                         
               Ag    Ag                  
              B      B                   
            B      B                     
         Mo     Mo                       
                                         
       Mo      Moi    Ni    Ni           
                                         
           Ni    NNi   NNi   Ni          
       Ni   NNi   NNi   Ni               
                                         
        Ni    Ni   NNi   Ni    Ni        
               Ni    Ni    Ni            
           Ni    Ni    Ni                
                Ni    Ni    Ni           
           Ni     Ni    Ni               
       Ni    Ni    Ni                    
                                         
                                         
                                         
                                         

Atomic positions and initial magnetic moments

Positions:
   0 Ni     0.000000    0.000000    8.000000    ( 0.0000,  0.0000,  0.0000)
   1 Ni     2.489016    0.000000    8.000000    ( 0.0000,  0.0000,  0.0000)
   2 Ni     4.978032    0.000000    8.000000    ( 0.0000,  0.0000,  0.0000)
   3 Ni     1.244508    2.155551    8.000000    ( 0.0000,  0.0000,  0.0000)
   4 Ni     3.733524    2.155551    8.000000    ( 0.0000,  0.0000,  0.0000)
   5 Ni     6.222540    2.155551    8.000000    ( 0.0000,  0.0000,  0.0000)
   6 Ni     2.489016    4.311102    8.000000    ( 0.0000,  0.0000,  0.0000)
   7 Ni     4.978032    4.311102    8.000000    ( 0.0000,  0.0000,  0.0000)
   8 Ni     7.467048    4.311102    8.000000    ( 0.0000,  0.0000,  0.0000)
   9 Ni     1.244508    0.718517   10.032273    ( 0.0000,  0.0000,  0.0000)
  10 Ni     3.733524    0.718517   10.032273    ( 0.0000,  0.0000,  0.0000)
  11 Ni     6.222540    0.718517   10.032273    ( 0.0000,  0.0000,  0.0000)
  12 Ni     2.489016    2.874068   10.032273    ( 0.0000,  0.0000,  0.0000)
  13 Ni     4.978032    2.874068   10.032273    ( 0.0000,  0.0000,  0.0000)
  14 Ni     7.467048    2.874068   10.032273    ( 0.0000,  0.0000,  0.0000)
  15 Ni     3.733524    5.029619   10.032273    ( 0.0000,  0.0000,  0.0000)
  16 Ni     6.222540    5.029619   10.032273    ( 0.0000,  0.0000,  0.0000)
  17 Ni     8.711556    5.029619   10.032273    ( 0.0000,  0.0000,  0.0000)
  18 Ni     0.000000    1.437034   12.064546    ( 0.0000,  0.0000,  0.0000)
  19 Ni     2.489016    1.437034   12.064546    ( 0.0000,  0.0000,  0.0000)
  20 Ni     4.978032    1.437034   12.064546    ( 0.0000,  0.0000,  0.0000)
  21 Ni     1.244508    3.592585   12.064546    ( 0.0000,  0.0000,  0.0000)
  22 Ni     3.733524    3.592585   12.064546    ( 0.0000,  0.0000,  0.0000)
  23 Ni     6.222540    3.592585   12.064546    ( 0.0000,  0.0000,  0.0000)
  24 Ni     2.489016    5.748136   12.064546    ( 0.0000,  0.0000,  0.0000)
  25 Ni     4.978032    5.748136   12.064546    ( 0.0000,  0.0000,  0.0000)
  26 Ni     7.467048    5.748136   12.064546    ( 0.0000,  0.0000,  0.0000)
  27 Ni     0.000000    0.000000   14.096819    ( 0.0000,  0.0000,  0.0000)
  28 Ni     2.489016    0.000000   14.096819    ( 0.0000,  0.0000,  0.0000)
  29 Ni     4.978032    0.000000   14.096819    ( 0.0000,  0.0000,  0.0000)
  30 Ni     1.244508    2.155551   14.096819    ( 0.0000,  0.0000,  0.0000)
  31 Ni     3.733524    2.155551   14.096819    ( 0.0000,  0.0000,  0.0000)
  32 Ni     6.222540    2.155551   14.096819    ( 0.0000,  0.0000,  0.0000)
  33 Ni     2.489016    4.311102   14.096819    ( 0.0000,  0.0000,  0.0000)
  34 Ni     4.978032    4.311102   14.096819    ( 0.0000,  0.0000,  0.0000)
  35 Ni     7.467048    4.311102   14.096819    ( 0.0000,  0.0000,  0.0000)
  36 Mo     0.000000    0.000000   16.296819    ( 0.0000,  0.0000,  0.0000)
  37 B      1.525000    1.525000   17.821819    ( 0.0000,  0.0000,  0.0000)
  38 Mo     0.000000    3.050000   16.296819    ( 0.0000,  0.0000,  0.0000)
  39 B      1.525000    4.575000   17.821819    ( 0.0000,  0.0000,  0.0000)
  40 Mo     3.050000    0.000000   16.296819    ( 0.0000,  0.0000,  0.0000)
  41 B      4.575000    1.525000   17.821819    ( 0.0000,  0.0000,  0.0000)
  42 Mo     3.050000    3.050000   16.296819    ( 0.0000,  0.0000,  0.0000)
  43 B      4.575000    4.575000   17.821819    ( 0.0000,  0.0000,  0.0000)
  44 Ag     2.525169    2.620450   19.621819    ( 0.0000,  0.0000,  0.0000)
  45 Ag     4.925169    2.620450   19.621819    ( 0.0000,  0.0000,  0.0000)

Unit cell:
           periodic     x           y           z      points  spacing
  1. axis:    yes    7.467048    0.000000    0.000000    32     0.2021
  2. axis:    yes    3.733524    6.466653    0.000000    32     0.2021
  3. axis:    yes    0.000000    0.000000   25.821819   128     0.2017

  Lengths:   7.467048   7.467048  25.821819
  Angles:   90.000000  90.000000  60.000000

Effective grid spacing dv^(1/3) = 0.2119

     iter     time        total  log10-change:
                         energy   eigst   dens
iter:   1 00:20:52  -806.877986        c
iter:   2 00:22:54 -2995.398320        c -1.03
iter:   3 00:24:39  -572.315068        c -0.48
iter:   4 00:26:29  -366.150486        c -1.22
iter:   5 00:28:13  -353.134199        c -1.55
iter:   6 00:30:34  -375.745524        c -1.58
iter:   7 00:32:49  -387.524931        c -1.57
iter:   8 00:34:21  -350.096525        c -1.52
iter:   9 00:36:26  -373.162840        c -1.66
iter:  10 00:38:51  -365.391182        c -1.61
iter:  11 00:40:30  -345.309582        c -1.47
iter:  12 00:42:08  -342.090664        c -1.74
iter:  13 00:43:51  -347.082803        c -1.82
iter:  14 00:45:49  -337.591844        c -1.86
iter:  15 00:47:32  -338.173023        c -1.99
iter:  16 00:49:43  -335.529633        c -1.98
iter:  17 00:52:17  -335.857833        c -2.09
iter:  18 00:54:19  -340.448646        c -2.14
iter:  19 00:57:00  -345.515886        c -1.95
iter:  20 00:59:26  -336.419988        c -1.73
iter:  21 01:01:18  -345.176780        c -2.28
iter:  22 01:03:39  -339.106912        c -1.89
iter:  23 01:05:40  -337.455394        c -2.01
iter:  24 01:07:37  -337.693816        c -2.05
iter:  25 01:09:41  -344.687753        c -2.04
iter:  26 01:11:21  -377.321624        c -1.90
iter:  27 01:13:18  -336.756838        c -1.44
iter:  28 01:15:39  -335.277408        c -2.20
iter:  29 01:17:41  -335.411653        c -2.39
iter:  30 01:19:20  -336.157583        c -2.31
iter:  31 01:21:32  -334.992790        c -2.23
iter:  32 01:23:41  -335.493211        c -2.45
iter:  33 01:25:22  -334.848138        c -2.43
iter:  34 01:27:32  -334.896381        c -2.60
iter:  35 01:29:28  -336.093483        c -2.66
iter:  36 01:31:31  -336.203397        c -2.37
iter:  37 01:33:47  -335.167766        c -2.25
iter:  38 01:36:04  -335.298364        c -2.59
iter:  39 01:38:04  -335.047998        c -2.40
iter:  40 01:40:11  -334.837301        c -2.58
iter:  41 01:41:56  -334.974474        c -2.89
iter:  42 01:43:41  -334.822227        c -2.76
iter:  43 01:45:14  -334.931302        c -3.02
iter:  44 01:47:22  -334.792055        c -2.65
iter:  45 01:49:09  -334.772725        c -3.03
iter:  46 01:51:51  -334.775186        c -3.37
iter:  47 01:53:52  -334.774846c       c -3.09
iter:  48 01:55:44  -334.787361        c -3.21
iter:  49 01:58:05  -334.769212        c -3.34
iter:  50 01:59:59  -334.766491        c -3.41
iter:  51 02:02:03  -334.767332c       c -3.54
iter:  52 02:04:03  -334.767157c       c -3.76
iter:  53 02:06:51  -334.766468c       c -3.73
iter:  54 02:08:55  -334.769177c       c -3.67
iter:  55 02:11:19  -334.771223c       c -3.95
iter:  56 02:13:35  -334.768837c       c -4.08c

Converged after 56 iterations.

Dipole moment: (-21.273271, -9.566544, 0.644284) |e|*Ang

Energy contributions relative to reference atoms: (reference = -2218480.225109)

Kinetic:        +56.665496
Potential:      -22.518367
External:        +0.000000
XC:            -365.858382
Entropy (-ST):   -3.438036
Local:           -1.338566
SIC:             +0.000000
--------------------------
Free energy:   -336.487855
Extrapolated:  -334.768837

Showing only first 2 kpts
 Kpt  Band  Eigenvalues  Occupancy
  0   337      0.71006    1.11242
  0   338      0.74260    0.95021
  0   339      0.76069    0.86064
  0   340      0.76862    0.82198

  1   337      0.64906    1.39513
  1   338      0.65595    1.36571
  1   339      0.66247    1.33710
  1   340      0.67270    1.29104


Fermi level: 0.73264

No gap
No difference between direct/indirect transitions
Timing:                              incl.     excl.
-----------------------------------------------------------
Basic WFS set positions:             0.000     0.000   0.0% |
Basis functions set positions:       0.167     0.167   0.0% |
LCAO WFS Initialize:                 0.365     0.083   0.0% |
 Hamiltonian:                        0.282     0.000   0.0% |
  Atomic:                            0.150     0.002   0.0% |
   XC Correction:                    0.148     0.148   0.0% |
  Calculate atomic Hamiltonians:     0.022     0.022   0.0% |
  Communicate:                       0.000     0.000   0.0% |
  Hartree integrate/restrict:        0.011     0.011   0.0% |
  Initialize Hamiltonian:            0.001     0.001   0.0% |
  Poisson:                           0.059     0.004   0.0% |
   Communicate from 1D:              0.006     0.006   0.0% |
   Communicate from 2D:              0.008     0.008   0.0% |
   Communicate to 1D:                0.006     0.006   0.0% |
   Communicate to 2D:                0.008     0.008   0.0% |
   FFT 1D:                           0.007     0.007   0.0% |
   FFT 2D:                           0.021     0.021   0.0% |
  XC 3D grid:                        0.035     0.035   0.0% |
  vbar:                              0.004     0.004   0.0% |
P tci:                               4.564     4.564   0.1% |
SCF-cycle:                        6856.610     0.211   0.0% |
 Density:                         3539.777     0.001   0.0% |
  Atomic density matrices:           0.954     0.954   0.0% |
  Mix:                               6.833     6.833   0.1% |
  Multipole moments:                 0.014     0.014   0.0% |
  Normalize:                         0.005     0.005   0.0% |
  Pseudo density:                 3531.970     0.021   0.0% |
   Calculate density matrix:         9.745     9.745   0.1% |
   Construct density:             3522.204  3522.204  51.3% |--------------------|
   Symmetrize density:               0.001     0.001   0.0% |
 Hamiltonian:                       16.939     0.002   0.0% |
  Atomic:                            8.321     0.091   0.0% |
   XC Correction:                    8.230     8.230   0.1% |
  Calculate atomic Hamiltonians:     1.262     1.262   0.0% |
  Communicate:                       0.000     0.000   0.0% |
  Hartree integrate/restrict:        0.565     0.565   0.0% |
  Poisson:                           3.170     0.278   0.0% |
   Communicate from 1D:              0.375     0.375   0.0% |
   Communicate from 2D:              0.346     0.346   0.0% |
   Communicate to 1D:                0.330     0.330   0.0% |
   Communicate to 2D:                0.401     0.401   0.0% |
   FFT 1D:                           0.338     0.338   0.0% |
   FFT 2D:                           1.101     1.101   0.0% |
  XC 3D grid:                        3.092     3.092   0.0% |
  vbar:                              0.527     0.527   0.0% |
 LCAO eigensolver:                3299.683     1.304   0.0% |
  Calculate projections:            91.964    91.964   1.3% ||
  DenseAtomicCorrection:           195.650   195.650   2.8% ||
  Distribute overlap matrix:         2.739     2.739   0.0% |
  Orbital Layouts:                2341.073  2341.073  34.1% |-------------|
  Potential matrix:                550.506   550.506   8.0% |--|
  Sum over cells:                  116.447   116.447   1.7% ||
ST tci:                              1.944     1.944   0.0% |
Set symmetry:                        0.000     0.000   0.0% |
TCI: Evaluate splines:               0.639     0.639   0.0% |
mktci:                               0.026     0.026   0.0% |
Other:                               4.709     4.709   0.1% |
-----------------------------------------------------------
Total:                                      6869.025 100.0%

Memory usage: 4.71 GiB
Date: Thu Mar  5 02:13:35 2026
