
  ___ ___ ___ _ _ _  
 |   |   |_  | | | | 
 | | | | | . | | | | 
 |__ |  _|___|_____|  25.7.0
 |___|_|             

User:   mikei@Z790-AORUS-ELITE-AX
Date:   Sat Mar  7 16:06:04 2026
Arch:   x86_64
Pid:    89048
CWD:    /home/mikei/Dokumenty/code/cemea/ocx
Python: 3.10.16
gpaw:   /home/mikei/.pyenv/versions/cemea-env/lib/python3.10/site-packages/gpaw
_gpaw:  /home/mikei/.pyenv/versions/cemea-env/lib/python3.10/site-packages/
        _gpaw.cpython-310-x86_64-linux-gnu.so
ase:    /home/mikei/.pyenv/versions/cemea-env/lib/python3.10/site-packages/ase (version 3.27.0)
numpy:  /home/mikei/.pyenv/versions/cemea-env/lib/python3.10/site-packages/numpy (version 2.2.6)
scipy:  /home/mikei/.pyenv/versions/cemea-env/lib/python3.10/site-packages/scipy (version 1.15.3)
libxc:  2.x.y
units:  Angstrom and eV
cores: 1
OpenMP: False
OMP_NUM_THREADS: 1

Input parameters:
  basis: dzp
  convergence: {density: 0.0001,
                eigenstates: 1e-05,
                energy: 1e-05}
  kpts: [4 4 1]
  mode: lcao

System changes: positions, numbers, cell, pbc, initial_charges, initial_magmoms 

Initialize ...

species:
  Ni:
    name: Nickel
    id: 1802175e8de9ea26d9f4394ec1a7d564
    Z: 28.0
    valence: 16
    core: 12
    charge: 0.0
    file: /home/mikei/.pyenv/versions/cemea-env/lib/python3.10/site-packages/gpaw_data/setups/Ni.LDA.gz
    compensation charges: {type: gauss,
                           rc: 0.36,
                           lmax: 2}
    cutoffs: {filter: 2.14,
              core: 1.98}
    projectors:
      #              energy  rcut
      - 4s(2.00)    -5.858   1.164
      - 3p(6.00)   -71.266   1.207
      - 4p(0.00)    -1.338   1.207
      - 3d(8.00)    -9.141   1.138
      -  s          21.353   1.164
      -  d          18.071   1.138
  
    # LCAO basis set for Ni:
    #   Name: dzp
    #   File: /home/mikei/.pyenv/versions/cemea-env/lib/python3.10/site-packages/gpaw_data/setups/Ni.dzp.basis.gz
    #   Number of radial functions: 9
    #   Number of spherical harmonics: 27
    #     l=0, rc=8.5156 Bohr: 4s-sz confined orbital
    #     l=1, rc=2.9375 Bohr: 3p-sz confined orbital
    #     l=1, rc=12.4062 Bohr: 4p-sz confined orbital
    #     l=2, rc=4.6875 Bohr: 3d-sz confined orbital
    #     l=0, rc=4.9688 Bohr: 4s-dz split-valence wave
    #     l=1, rc=2.0781 Bohr: 3p-dz split-valence wave
    #     l=1, rc=7.5469 Bohr: 4p-dz split-valence wave
    #     l=2, rc=2.9375 Bohr: 3d-dz split-valence wave
    #     l=1, rc=8.5156 Bohr: p-type Gaussian polarization
    #   Number of RI-basis functions 0

  Mo:
    name: Molybdenum
    id: ac24daaf086600a00ce6d19a74574df1
    Z: 42.0
    valence: 14
    core: 28
    charge: 0.0
    file: /home/mikei/.pyenv/versions/cemea-env/lib/python3.10/site-packages/gpaw_data/setups/Mo.LDA.gz
    compensation charges: {type: gauss,
                           rc: 0.38,
                           lmax: 2}
    cutoffs: {filter: 2.16,
              core: 1.42}
    projectors:
      #              energy  rcut
      - 4s(2.00)   -64.384   1.238
      - 5s(1.00)    -4.319   1.238
      - 4p(6.00)   -38.595   1.296
      - 5p(0.00)    -1.161   1.296
      - 4d(5.00)    -3.933   1.296
      -  d          23.278   1.296
  
    # LCAO basis set for Mo:
    #   Name: dzp
    #   File: /home/mikei/.pyenv/versions/cemea-env/lib/python3.10/site-packages/gpaw_data/setups/Mo.dzp.basis.gz
    #   Number of radial functions: 11
    #   Number of spherical harmonics: 29
    #     l=0, rc=3.5469 Bohr: 4s-sz confined orbital
    #     l=0, rc=10.0469 Bohr: 5s-sz confined orbital
    #     l=1, rc=4.0781 Bohr: 4p-sz confined orbital
    #     l=1, rc=14.0938 Bohr: 5p-sz confined orbital
    #     l=2, rc=7.2031 Bohr: 4d-sz confined orbital
    #     l=0, rc=2.1250 Bohr: 4s-dz split-valence wave
    #     l=0, rc=6.1250 Bohr: 5s-dz split-valence wave
    #     l=1, rc=2.5469 Bohr: 4p-dz split-valence wave
    #     l=1, rc=8.7656 Bohr: 5p-dz split-valence wave
    #     l=2, rc=4.2344 Bohr: 4d-dz split-valence wave
    #     l=1, rc=10.0469 Bohr: p-type Gaussian polarization
    #   Number of RI-basis functions 0

  B:
    name: Boron
    id: 02e2e0e88ef95f403158802f6b0f4231
    Z: 5.0
    valence: 3
    core: 2
    charge: 0.0
    file: /home/mikei/.pyenv/versions/cemea-env/lib/python3.10/site-packages/gpaw_data/setups/B.LDA.gz
    compensation charges: {type: gauss,
                           rc: 0.20,
                           lmax: 2}
    cutoffs: {filter: 1.14,
              core: 1.42}
    projectors:
      #              energy  rcut
      - 2s(2.00)    -9.383   0.635
      - 2p(1.00)    -3.714   0.635
      -  s          17.828   0.635
      -  p          23.498   0.635
      -  d           0.000   0.635
  
    # LCAO basis set for B:
    #   Name: dzp
    #   File: /home/mikei/.pyenv/versions/cemea-env/lib/python3.10/site-packages/gpaw_data/setups/B.dzp.basis.gz
    #   Number of radial functions: 5
    #   Number of spherical harmonics: 13
    #     l=0, rc=6.6719 Bohr: 2s-sz confined orbital
    #     l=1, rc=8.2188 Bohr: 2p-sz confined orbital
    #     l=0, rc=3.7500 Bohr: 2s-dz split-valence wave
    #     l=1, rc=4.6094 Bohr: 2p-dz split-valence wave
    #     l=2, rc=8.2188 Bohr: d-type Gaussian polarization
    #   Number of RI-basis functions 0

Reference energy: -1929551.160602  # eV

Spin-paired calculation

Convergence criteria:
 Maximum [total energy] change in last 3 cyles: 1e-05 eV / valence electron
 Maximum integral of absolute [dens]ity change: 0.0001 electrons / valence electron
 Maximum integral of absolute [eigenst]ate change: 1e-05 eV^2 / valence electron
 Maximum number of scf [iter]ations: 333
 (Square brackets indicate name in SCF output, whereas a 'c' in
 the SCF output indicates the quantity has converged.)

Symmetries present (total): 1

  ( 1  0  0)
  ( 0  1  0)
  ( 0  0  1)

16 k-points: 4 x 4 x 1 Monkhorst-Pack grid
8 k-points in the irreducible part of the Brillouin zone
       k-points in crystal coordinates                weights
   0:     0.12500000   -0.37500000    0.00000000          2/16
   1:     0.12500000   -0.12500000    0.00000000          2/16
   2:     0.12500000    0.12500000    0.00000000          2/16
   3:     0.12500000    0.37500000    0.00000000          2/16
   4:     0.37500000   -0.37500000    0.00000000          2/16
   5:     0.37500000   -0.12500000    0.00000000          2/16
   6:     0.37500000    0.12500000    0.00000000          2/16
   7:     0.37500000    0.37500000    0.00000000          2/16

Wave functions: LCAO
  Diagonalizer: Serial LAPACK
  Atomic Correction: dense with blas
  Data-type: complex
 

Occupation numbers: Fermi-Dirac:
  width: 0.1000  # eV
 

Eigensolver
   LCAO using direct dense diagonalizer 

Densities:
  Coarse grid: 32*32*128 grid
  Fine grid: 64*64*256 grid
  Total Charge: 0.000000 

Density mixing:
  Method: separate
  Backend: pulay
  Linear mixing parameter: 0.05
  old densities: 5
  Damping of long wavelength oscillations: 50 

Hamiltonian:
  XC and Coulomb potentials evaluated on a 64*64*256 grid
  Using the LDA Exchange-Correlation functional
  Interpolation: tri-quintic (5. degree polynomial)
  Poisson solver: FastPoissonSolver using
    Stencil: 8*3+1=25 point O(h^6) finite-difference Laplacian
    FFT axes: [np.int64(0), np.int64(1), np.int64(2)]
    FST axes: []
 

Memory estimate:
  Process memory now: 4818.40 MiB
  Calculator: 814.43 MiB
    Density: 178.21 MiB
      Arrays: 26.00 MiB
      Localized functions: 142.21 MiB
      Mixer: 10.00 MiB
    Hamiltonian: 27.72 MiB
      Arrays: 17.00 MiB
      XC: 0.00 MiB
      Poisson: 0.00 MiB
      vbar: 10.72 MiB
    Wavefunctions: 608.50 MiB
      C [qnM]: 54.41 MiB
      S, T [2 x qmm]: 317.29 MiB
      P [aqMi]: 6.71 MiB
      BasisFunctions: 230.08 MiB
      Eigensolver: 0.00 MiB

Total number of cores used: 1

Number of atoms: 44
Number of atomic orbitals: 1140
Number of bands in calculation: 391
Number of valence electrons: 644
Bands to converge: occupied

... initialized

Initializing position-dependent things.

Density initialized from atomic densities
                                         
                                         
                                         
                                         
              B      B                   
                                         
            B      B                     
         Mo     Mo                       
                                         
       Mo      Moi    Ni    Ni           
           Ni     Ni    Ni               
                 Ni    Ni    Ni          
       Ni   NNi   NNi   Ni               
        Ni    Ni    Ni                   
                   Ni    Ni    Ni        
               Ni    Ni    Ni            
           Ni    Ni    Ni                
                Ni    Ni    Ni           
           Ni     Ni    Ni               
       Ni    Ni    Ni                    
                                         
                                         
                                         
                                         

Atomic positions and initial magnetic moments

Positions:
   0 Ni     0.000000    0.000000    8.000000    ( 0.0000,  0.0000,  0.0000)
   1 Ni     2.489016    0.000000    8.000000    ( 0.0000,  0.0000,  0.0000)
   2 Ni     4.978032    0.000000    8.000000    ( 0.0000,  0.0000,  0.0000)
   3 Ni     1.244508    2.155551    8.000000    ( 0.0000,  0.0000,  0.0000)
   4 Ni     3.733524    2.155551    8.000000    ( 0.0000,  0.0000,  0.0000)
   5 Ni     6.222540    2.155551    8.000000    ( 0.0000,  0.0000,  0.0000)
   6 Ni     2.489016    4.311102    8.000000    ( 0.0000,  0.0000,  0.0000)
   7 Ni     4.978032    4.311102    8.000000    ( 0.0000,  0.0000,  0.0000)
   8 Ni     7.467048    4.311102    8.000000    ( 0.0000,  0.0000,  0.0000)
   9 Ni     1.244508    0.718517   10.032273    ( 0.0000,  0.0000,  0.0000)
  10 Ni     3.733524    0.718517   10.032273    ( 0.0000,  0.0000,  0.0000)
  11 Ni     6.222540    0.718517   10.032273    ( 0.0000,  0.0000,  0.0000)
  12 Ni     2.489016    2.874068   10.032273    ( 0.0000,  0.0000,  0.0000)
  13 Ni     4.978032    2.874068   10.032273    ( 0.0000,  0.0000,  0.0000)
  14 Ni     7.467048    2.874068   10.032273    ( 0.0000,  0.0000,  0.0000)
  15 Ni     3.733524    5.029619   10.032273    ( 0.0000,  0.0000,  0.0000)
  16 Ni     6.222540    5.029619   10.032273    ( 0.0000,  0.0000,  0.0000)
  17 Ni     8.711556    5.029619   10.032273    ( 0.0000,  0.0000,  0.0000)
  18 Ni     0.000000    1.437034   12.064546    ( 0.0000,  0.0000,  0.0000)
  19 Ni     2.489016    1.437034   12.064546    ( 0.0000,  0.0000,  0.0000)
  20 Ni     4.978032    1.437034   12.064546    ( 0.0000,  0.0000,  0.0000)
  21 Ni     1.244508    3.592585   12.064546    ( 0.0000,  0.0000,  0.0000)
  22 Ni     3.733524    3.592585   12.064546    ( 0.0000,  0.0000,  0.0000)
  23 Ni     6.222540    3.592585   12.064546    ( 0.0000,  0.0000,  0.0000)
  24 Ni     2.489016    5.748136   12.064546    ( 0.0000,  0.0000,  0.0000)
  25 Ni     4.978032    5.748136   12.064546    ( 0.0000,  0.0000,  0.0000)
  26 Ni     7.467048    5.748136   12.064546    ( 0.0000,  0.0000,  0.0000)
  27 Ni     0.000000    0.000000   14.096819    ( 0.0000,  0.0000,  0.0000)
  28 Ni     2.489016    0.000000   14.096819    ( 0.0000,  0.0000,  0.0000)
  29 Ni     4.978032    0.000000   14.096819    ( 0.0000,  0.0000,  0.0000)
  30 Ni     1.244508    2.155551   14.096819    ( 0.0000,  0.0000,  0.0000)
  31 Ni     3.733524    2.155551   14.096819    ( 0.0000,  0.0000,  0.0000)
  32 Ni     6.222540    2.155551   14.096819    ( 0.0000,  0.0000,  0.0000)
  33 Ni     2.489016    4.311102   14.096819    ( 0.0000,  0.0000,  0.0000)
  34 Ni     4.978032    4.311102   14.096819    ( 0.0000,  0.0000,  0.0000)
  35 Ni     7.467048    4.311102   14.096819    ( 0.0000,  0.0000,  0.0000)
  36 Mo     0.000000    0.000000   16.296819    ( 0.0000,  0.0000,  0.0000)
  37 B      1.525000    1.525000   17.821819    ( 0.0000,  0.0000,  0.0000)
  38 Mo     0.000000    3.050000   16.296819    ( 0.0000,  0.0000,  0.0000)
  39 B      1.525000    4.575000   17.821819    ( 0.0000,  0.0000,  0.0000)
  40 Mo     3.050000    0.000000   16.296819    ( 0.0000,  0.0000,  0.0000)
  41 B      4.575000    1.525000   17.821819    ( 0.0000,  0.0000,  0.0000)
  42 Mo     3.050000    3.050000   16.296819    ( 0.0000,  0.0000,  0.0000)
  43 B      4.575000    4.575000   17.821819    ( 0.0000,  0.0000,  0.0000)

Unit cell:
           periodic     x           y           z      points  spacing
  1. axis:    yes    7.467048    0.000000    0.000000    32     0.2021
  2. axis:    yes    3.733524    6.466653    0.000000    32     0.2021
  3. axis:    yes    0.000000    0.000000   25.821819   128     0.2017

  Lengths:   7.467048   7.467048  25.821819
  Angles:   90.000000  90.000000  60.000000

Effective grid spacing dv^(1/3) = 0.2119

     iter     time        total  log10-change:
                         energy   eigst   dens
iter:   1 16:07:11  -702.624730        c
iter:   2 16:09:05 -1609.900324        c -1.11
iter:   3 16:11:20  -558.077594        c -0.64
iter:   4 16:13:02  -451.482706        c -1.21
iter:   5 16:15:02  -419.464677        c -1.32
iter:   6 16:16:52  -343.778847        c -1.37
iter:   7 16:19:09  -345.147502        c -1.64
iter:   8 16:21:04  -333.926377        c -1.60
iter:   9 16:23:01  -341.144204        c -1.73
iter:  10 16:25:01  -398.808050        c -1.68
iter:  11 16:27:04  -332.719129        c -1.31
iter:  12 16:29:26  -336.811394        c -1.79
iter:  13 16:31:14  -334.865602        c -1.71
iter:  14 16:33:02  -334.497698        c -1.82
iter:  15 16:34:57  -333.750824        c -1.88
iter:  16 16:37:42  -330.133196        c -1.89
iter:  17 16:39:50  -331.720254        c -2.01
iter:  18 16:41:33  -334.991394        c -2.01
iter:  19 16:43:27  -329.407951        c -1.91
iter:  20 16:45:29  -330.373176        c -2.18
iter:  21 16:47:37  -333.676593        c -2.07
iter:  22 16:49:34  -328.889712        c -1.99
iter:  23 16:51:14  -328.491824        c -2.45
iter:  24 16:53:39  -328.952903        c -2.67
iter:  25 16:55:32  -329.125017        c -2.44
iter:  26 16:57:24  -329.312868        c -2.32
iter:  27 16:59:34  -328.697640        c -2.32
iter:  28 17:01:44  -329.825284        c -2.61
iter:  29 17:03:53  -328.547439        c -2.35
iter:  30 17:05:38  -328.444818        c -2.76
iter:  31 17:08:04  -328.457785        c -2.86
iter:  32 17:10:23  -328.463452        c -2.79
iter:  33 17:12:26  -328.426038        c -2.92
iter:  34 17:14:49  -328.422771        c -3.10
iter:  35 17:17:26  -329.217671        c -2.98
iter:  36 17:19:17  -328.414310        c -2.38
iter:  37 17:21:16  -328.406164        c -3.11
iter:  38 17:23:35  -328.410290        c -3.28
iter:  39 17:25:20  -328.396903        c -3.28
iter:  40 17:27:33  -328.395156        c -3.51
iter:  41 17:29:22  -328.398241c       c -3.41
iter:  42 17:31:38  -328.399899c       c -3.22
iter:  43 17:34:13  -328.420126        c -3.50
iter:  44 17:36:33  -328.400885        c -3.18
iter:  45 17:38:26  -328.392038        c -3.53
iter:  46 17:40:43  -328.392424        c -3.65
iter:  47 17:42:42  -328.394013c       c -4.05c

Converged after 47 iterations.

Dipole moment: (-17.653949, -9.507795, 0.040864) |e|*Ang

Energy contributions relative to reference atoms: (reference = -1929551.160602)

Kinetic:        +69.164532
Potential:      -33.773015
External:        +0.000000
XC:            -360.771567
Entropy (-ST):   -3.391990
Local:           -1.317967
SIC:             +0.000000
--------------------------
Free energy:   -330.090007
Extrapolated:  -328.394013

Showing only first 2 kpts
 Kpt  Band  Eigenvalues  Occupancy
  0   320      0.10244    1.08861
  0   321      0.11399    1.03108
  0   322      0.14106    0.89610
  0   323      0.14947    0.85475

  1   320      0.03511    1.40152
  1   321      0.04234    1.37078
  1   322      0.05063    1.33452
  1   323      0.06504    1.26905


Fermi level: 0.12021

No gap
No difference between direct/indirect transitions
Timing:                              incl.     excl.
-----------------------------------------------------------
Basic WFS set positions:             0.000     0.000   0.0% |
Basis functions set positions:       0.162     0.162   0.0% |
LCAO WFS Initialize:                 0.350     0.079   0.0% |
 Hamiltonian:                        0.271     0.000   0.0% |
  Atomic:                            0.144     0.002   0.0% |
   XC Correction:                    0.143     0.143   0.0% |
  Calculate atomic Hamiltonians:     0.021     0.021   0.0% |
  Communicate:                       0.000     0.000   0.0% |
  Hartree integrate/restrict:        0.009     0.009   0.0% |
  Initialize Hamiltonian:            0.001     0.001   0.0% |
  Poisson:                           0.057     0.004   0.0% |
   Communicate from 1D:              0.006     0.006   0.0% |
   Communicate from 2D:              0.007     0.007   0.0% |
   Communicate to 1D:                0.006     0.006   0.0% |
   Communicate to 2D:                0.007     0.007   0.0% |
   FFT 1D:                           0.007     0.007   0.0% |
   FFT 2D:                           0.019     0.019   0.0% |
  XC 3D grid:                        0.036     0.036   0.0% |
  vbar:                              0.004     0.004   0.0% |
P tci:                               4.366     4.366   0.1% |
SCF-cycle:                        5787.017     0.150   0.0% |
 Density:                         2842.591     0.001   0.0% |
  Atomic density matrices:           0.756     0.756   0.0% |
  Mix:                               6.182     6.182   0.1% |
  Multipole moments:                 0.012     0.012   0.0% |
  Normalize:                         0.004     0.004   0.0% |
  Pseudo density:                 2835.635     0.024   0.0% |
   Calculate density matrix:         7.338     7.338   0.1% |
   Construct density:             2828.273  2828.273  48.8% |-------------------|
   Symmetrize density:               0.001     0.001   0.0% |
 Hamiltonian:                       14.164     0.002   0.0% |
  Atomic:                            6.679     0.084   0.0% |
   XC Correction:                    6.596     6.596   0.1% |
  Calculate atomic Hamiltonians:     1.040     1.040   0.0% |
  Communicate:                       0.000     0.000   0.0% |
  Hartree integrate/restrict:        0.487     0.487   0.0% |
  Poisson:                           2.479     0.185   0.0% |
   Communicate from 1D:              0.250     0.250   0.0% |
   Communicate from 2D:              0.288     0.288   0.0% |
   Communicate to 1D:                0.270     0.270   0.0% |
   Communicate to 2D:                0.315     0.315   0.0% |
   FFT 1D:                           0.272     0.272   0.0% |
   FFT 2D:                           0.899     0.899   0.0% |
  XC 3D grid:                        2.886     2.886   0.0% |
  vbar:                              0.591     0.591   0.0% |
 LCAO eigensolver:                2930.112     0.959   0.0% |
  Calculate projections:            73.816    73.816   1.3% ||
  DenseAtomicCorrection:           138.928   138.928   2.4% ||
  Distribute overlap matrix:         1.733     1.733   0.0% |
  Orbital Layouts:                2234.166  2234.166  38.5% |--------------|
  Potential matrix:                444.153   444.153   7.7% |--|
  Sum over cells:                   36.358    36.358   0.6% |
ST tci:                              1.801     1.801   0.0% |
Set symmetry:                        0.000     0.000   0.0% |
TCI: Evaluate splines:               0.335     0.335   0.0% |
mktci:                               0.024     0.024   0.0% |
Other:                               4.575     4.575   0.1% |
-----------------------------------------------------------
Total:                                      5798.632 100.0%

Memory usage: 4.71 GiB
Date: Sat Mar  7 17:42:42 2026
