
  ___ ___ ___ _ _ _  
 |   |   |_  | | | | 
 | | | | | . | | | | 
 |__ |  _|___|_____|  25.7.0
 |___|_|             

User:   mikei@Z790-AORUS-ELITE-AX
Date:   Wed Mar  4 03:23:47 2026
Arch:   x86_64
Pid:    89048
CWD:    /home/mikei/Dokumenty/code/cemea/ocx
Python: 3.10.16
gpaw:   /home/mikei/.pyenv/versions/cemea-env/lib/python3.10/site-packages/gpaw
_gpaw:  /home/mikei/.pyenv/versions/cemea-env/lib/python3.10/site-packages/
        _gpaw.cpython-310-x86_64-linux-gnu.so
ase:    /home/mikei/.pyenv/versions/cemea-env/lib/python3.10/site-packages/ase (version 3.27.0)
numpy:  /home/mikei/.pyenv/versions/cemea-env/lib/python3.10/site-packages/numpy (version 2.2.6)
scipy:  /home/mikei/.pyenv/versions/cemea-env/lib/python3.10/site-packages/scipy (version 1.15.3)
libxc:  2.x.y
units:  Angstrom and eV
cores: 1
OpenMP: False
OMP_NUM_THREADS: 1

Input parameters:
  basis: dzp
  convergence: {density: 0.0001,
                eigenstates: 1e-05,
                energy: 1e-05}
  kpts: [4 4 1]
  mode: lcao

System changes: positions, numbers, cell, pbc, initial_charges, initial_magmoms 

Initialize ...

species:
  Ni:
    name: Nickel
    id: 1802175e8de9ea26d9f4394ec1a7d564
    Z: 28.0
    valence: 16
    core: 12
    charge: 0.0
    file: /home/mikei/.pyenv/versions/cemea-env/lib/python3.10/site-packages/gpaw_data/setups/Ni.LDA.gz
    compensation charges: {type: gauss,
                           rc: 0.36,
                           lmax: 2}
    cutoffs: {filter: 2.14,
              core: 1.98}
    projectors:
      #              energy  rcut
      - 4s(2.00)    -5.858   1.164
      - 3p(6.00)   -71.266   1.207
      - 4p(0.00)    -1.338   1.207
      - 3d(8.00)    -9.141   1.138
      -  s          21.353   1.164
      -  d          18.071   1.138
  
    # LCAO basis set for Ni:
    #   Name: dzp
    #   File: /home/mikei/.pyenv/versions/cemea-env/lib/python3.10/site-packages/gpaw_data/setups/Ni.dzp.basis.gz
    #   Number of radial functions: 9
    #   Number of spherical harmonics: 27
    #     l=0, rc=8.5156 Bohr: 4s-sz confined orbital
    #     l=1, rc=2.9375 Bohr: 3p-sz confined orbital
    #     l=1, rc=12.4062 Bohr: 4p-sz confined orbital
    #     l=2, rc=4.6875 Bohr: 3d-sz confined orbital
    #     l=0, rc=4.9688 Bohr: 4s-dz split-valence wave
    #     l=1, rc=2.0781 Bohr: 3p-dz split-valence wave
    #     l=1, rc=7.5469 Bohr: 4p-dz split-valence wave
    #     l=2, rc=2.9375 Bohr: 3d-dz split-valence wave
    #     l=1, rc=8.5156 Bohr: p-type Gaussian polarization
    #   Number of RI-basis functions 0

  Mo:
    name: Molybdenum
    id: ac24daaf086600a00ce6d19a74574df1
    Z: 42.0
    valence: 14
    core: 28
    charge: 0.0
    file: /home/mikei/.pyenv/versions/cemea-env/lib/python3.10/site-packages/gpaw_data/setups/Mo.LDA.gz
    compensation charges: {type: gauss,
                           rc: 0.38,
                           lmax: 2}
    cutoffs: {filter: 2.16,
              core: 1.42}
    projectors:
      #              energy  rcut
      - 4s(2.00)   -64.384   1.238
      - 5s(1.00)    -4.319   1.238
      - 4p(6.00)   -38.595   1.296
      - 5p(0.00)    -1.161   1.296
      - 4d(5.00)    -3.933   1.296
      -  d          23.278   1.296
  
    # LCAO basis set for Mo:
    #   Name: dzp
    #   File: /home/mikei/.pyenv/versions/cemea-env/lib/python3.10/site-packages/gpaw_data/setups/Mo.dzp.basis.gz
    #   Number of radial functions: 11
    #   Number of spherical harmonics: 29
    #     l=0, rc=3.5469 Bohr: 4s-sz confined orbital
    #     l=0, rc=10.0469 Bohr: 5s-sz confined orbital
    #     l=1, rc=4.0781 Bohr: 4p-sz confined orbital
    #     l=1, rc=14.0938 Bohr: 5p-sz confined orbital
    #     l=2, rc=7.2031 Bohr: 4d-sz confined orbital
    #     l=0, rc=2.1250 Bohr: 4s-dz split-valence wave
    #     l=0, rc=6.1250 Bohr: 5s-dz split-valence wave
    #     l=1, rc=2.5469 Bohr: 4p-dz split-valence wave
    #     l=1, rc=8.7656 Bohr: 5p-dz split-valence wave
    #     l=2, rc=4.2344 Bohr: 4d-dz split-valence wave
    #     l=1, rc=10.0469 Bohr: p-type Gaussian polarization
    #   Number of RI-basis functions 0

  B:
    name: Boron
    id: 02e2e0e88ef95f403158802f6b0f4231
    Z: 5.0
    valence: 3
    core: 2
    charge: 0.0
    file: /home/mikei/.pyenv/versions/cemea-env/lib/python3.10/site-packages/gpaw_data/setups/B.LDA.gz
    compensation charges: {type: gauss,
                           rc: 0.20,
                           lmax: 2}
    cutoffs: {filter: 1.14,
              core: 1.42}
    projectors:
      #              energy  rcut
      - 2s(2.00)    -9.383   0.635
      - 2p(1.00)    -3.714   0.635
      -  s          17.828   0.635
      -  p          23.498   0.635
      -  d           0.000   0.635
  
    # LCAO basis set for B:
    #   Name: dzp
    #   File: /home/mikei/.pyenv/versions/cemea-env/lib/python3.10/site-packages/gpaw_data/setups/B.dzp.basis.gz
    #   Number of radial functions: 5
    #   Number of spherical harmonics: 13
    #     l=0, rc=6.6719 Bohr: 2s-sz confined orbital
    #     l=1, rc=8.2188 Bohr: 2p-sz confined orbital
    #     l=0, rc=3.7500 Bohr: 2s-dz split-valence wave
    #     l=1, rc=4.6094 Bohr: 2p-dz split-valence wave
    #     l=2, rc=8.2188 Bohr: d-type Gaussian polarization
    #   Number of RI-basis functions 0

Reference energy: -1929551.160602  # eV

Spin-paired calculation

Convergence criteria:
 Maximum [total energy] change in last 3 cyles: 1e-05 eV / valence electron
 Maximum integral of absolute [dens]ity change: 0.0001 electrons / valence electron
 Maximum integral of absolute [eigenst]ate change: 1e-05 eV^2 / valence electron
 Maximum number of scf [iter]ations: 333
 (Square brackets indicate name in SCF output, whereas a 'c' in
 the SCF output indicates the quantity has converged.)

Symmetries present (total): 2

  ( 1  0  0)  ( 0  1  0)
  ( 0  1  0)  ( 1  0  0)
  ( 0  0  1)  ( 0  0  1)

16 k-points: 4 x 4 x 1 Monkhorst-Pack grid
6 k-points in the irreducible part of the Brillouin zone
       k-points in crystal coordinates                weights
   0:     0.12500000   -0.12500000    0.00000000          2/16
   1:     0.12500000    0.12500000    0.00000000          2/16
   2:     0.37500000   -0.37500000    0.00000000          2/16
   3:     0.37500000   -0.12500000    0.00000000          4/16
   4:     0.37500000    0.12500000    0.00000000          4/16
   5:     0.37500000    0.37500000    0.00000000          2/16

Wave functions: LCAO
  Diagonalizer: Serial LAPACK
  Atomic Correction: dense with blas
  Data-type: complex
 

Occupation numbers: Fermi-Dirac:
  width: 0.1000  # eV
 

Eigensolver
   LCAO using direct dense diagonalizer 

Densities:
  Coarse grid: 36*36*124 grid
  Fine grid: 72*72*248 grid
  Total Charge: 0.000000 

Density mixing:
  Method: separate
  Backend: pulay
  Linear mixing parameter: 0.05
  old densities: 5
  Damping of long wavelength oscillations: 50 

Hamiltonian:
  XC and Coulomb potentials evaluated on a 72*72*248 grid
  Using the LDA Exchange-Correlation functional
  Interpolation: tri-quintic (5. degree polynomial)
  Poisson solver: FastPoissonSolver using
    Stencil: 6*3+1=19 point O(h^6) finite-difference Laplacian
    FFT axes: [np.int64(0), np.int64(1), np.int64(2)]
    FST axes: []
 

Memory estimate:
  Process memory now: 4818.40 MiB
  Calculator: 768.77 MiB
    Density: 200.08 MiB
      Arrays: 31.88 MiB
      Localized functions: 155.94 MiB
      Mixer: 12.26 MiB
    Hamiltonian: 32.60 MiB
      Arrays: 20.84 MiB
      XC: 0.00 MiB
      Poisson: 0.00 MiB
      vbar: 11.76 MiB
    Wavefunctions: 536.10 MiB
      C [qnM]: 40.81 MiB
      S, T [2 x qmm]: 237.96 MiB
      P [aqMi]: 5.04 MiB
      BasisFunctions: 252.29 MiB
      Eigensolver: 0.00 MiB

Total number of cores used: 1

Number of atoms: 44
Number of atomic orbitals: 1140
Number of bands in calculation: 391
Number of valence electrons: 644
Bands to converge: occupied

... initialized

Initializing position-dependent things.

Density initialized from atomic densities
      .-----------------.  
     /|                 |  
    / |                 |  
   /  |                 |  
  /   |                 |  
 *    |                 |  
 |    |                 |  
 |    |                 |  
 |    |                 |  
 |    |                 |  
 |    |                 |  
 |    |                 |  
 |    | B      B        |  
 |    |                 |  
 |    B      B          |  
 | Mo |   Mo            |  
 |  Ni|   Ni    Ni      |  
 Mo   | Mo              |  
 | Ni | NNi   NNi   Ni  |  
 |    Ni    Ni    Ni    |  
 Ni   |Ni    Ni         |  
 |  NNi   NNi   NNi     |  
 | Ni | NNi   NNi   Ni  |  
 |    |                 |  
 Ni   NNi   NNi   Ni    |  
 |   Ni    Ni    Ni     |  
 |    |                 |  
 |    |                 |  
 |    |                 |  
 |    |                 |  
 |    |                 |  
 |    .-----------------.  
 |   /                 /   
 |  /                 /    
 | /                 /     
 |/                 /      
 *-----------------*       

Atomic positions and initial magnetic moments

Positions:
   0 Ni     1.244508    1.244508    8.000000    ( 0.0000,  0.0000,  0.0000)
   1 Ni     3.733524    1.244508    8.000000    ( 0.0000,  0.0000,  0.0000)
   2 Ni     6.222540    1.244508    8.000000    ( 0.0000,  0.0000,  0.0000)
   3 Ni     1.244508    3.733524    8.000000    ( 0.0000,  0.0000,  0.0000)
   4 Ni     3.733524    3.733524    8.000000    ( 0.0000,  0.0000,  0.0000)
   5 Ni     6.222540    3.733524    8.000000    ( 0.0000,  0.0000,  0.0000)
   6 Ni     1.244508    6.222540    8.000000    ( 0.0000,  0.0000,  0.0000)
   7 Ni     3.733524    6.222540    8.000000    ( 0.0000,  0.0000,  0.0000)
   8 Ni     6.222540    6.222540    8.000000    ( 0.0000,  0.0000,  0.0000)
   9 Ni     0.000000    0.000000    9.760000    ( 0.0000,  0.0000,  0.0000)
  10 Ni     2.489016    0.000000    9.760000    ( 0.0000,  0.0000,  0.0000)
  11 Ni     4.978032    0.000000    9.760000    ( 0.0000,  0.0000,  0.0000)
  12 Ni     0.000000    2.489016    9.760000    ( 0.0000,  0.0000,  0.0000)
  13 Ni     2.489016    2.489016    9.760000    ( 0.0000,  0.0000,  0.0000)
  14 Ni     4.978032    2.489016    9.760000    ( 0.0000,  0.0000,  0.0000)
  15 Ni     0.000000    4.978032    9.760000    ( 0.0000,  0.0000,  0.0000)
  16 Ni     2.489016    4.978032    9.760000    ( 0.0000,  0.0000,  0.0000)
  17 Ni     4.978032    4.978032    9.760000    ( 0.0000,  0.0000,  0.0000)
  18 Ni     1.244508    1.244508   11.520000    ( 0.0000,  0.0000,  0.0000)
  19 Ni     3.733524    1.244508   11.520000    ( 0.0000,  0.0000,  0.0000)
  20 Ni     6.222540    1.244508   11.520000    ( 0.0000,  0.0000,  0.0000)
  21 Ni     1.244508    3.733524   11.520000    ( 0.0000,  0.0000,  0.0000)
  22 Ni     3.733524    3.733524   11.520000    ( 0.0000,  0.0000,  0.0000)
  23 Ni     6.222540    3.733524   11.520000    ( 0.0000,  0.0000,  0.0000)
  24 Ni     1.244508    6.222540   11.520000    ( 0.0000,  0.0000,  0.0000)
  25 Ni     3.733524    6.222540   11.520000    ( 0.0000,  0.0000,  0.0000)
  26 Ni     6.222540    6.222540   11.520000    ( 0.0000,  0.0000,  0.0000)
  27 Ni     0.000000    0.000000   13.280000    ( 0.0000,  0.0000,  0.0000)
  28 Ni     2.489016    0.000000   13.280000    ( 0.0000,  0.0000,  0.0000)
  29 Ni     4.978032    0.000000   13.280000    ( 0.0000,  0.0000,  0.0000)
  30 Ni     0.000000    2.489016   13.280000    ( 0.0000,  0.0000,  0.0000)
  31 Ni     2.489016    2.489016   13.280000    ( 0.0000,  0.0000,  0.0000)
  32 Ni     4.978032    2.489016   13.280000    ( 0.0000,  0.0000,  0.0000)
  33 Ni     0.000000    4.978032   13.280000    ( 0.0000,  0.0000,  0.0000)
  34 Ni     2.489016    4.978032   13.280000    ( 0.0000,  0.0000,  0.0000)
  35 Ni     4.978032    4.978032   13.280000    ( 0.0000,  0.0000,  0.0000)
  36 Mo     0.000000    0.000000   15.480000    ( 0.0000,  0.0000,  0.0000)
  37 B      1.525000    1.525000   17.005000    ( 0.0000,  0.0000,  0.0000)
  38 Mo     0.000000    3.050000   15.480000    ( 0.0000,  0.0000,  0.0000)
  39 B      1.525000    4.575000   17.005000    ( 0.0000,  0.0000,  0.0000)
  40 Mo     3.050000    0.000000   15.480000    ( 0.0000,  0.0000,  0.0000)
  41 B      4.575000    1.525000   17.005000    ( 0.0000,  0.0000,  0.0000)
  42 Mo     3.050000    3.050000   15.480000    ( 0.0000,  0.0000,  0.0000)
  43 B      4.575000    4.575000   17.005000    ( 0.0000,  0.0000,  0.0000)

Unit cell:
           periodic     x           y           z      points  spacing
  1. axis:    yes    7.467048    0.000000    0.000000    36     0.2074
  2. axis:    yes    0.000000    7.467048    0.000000    36     0.2074
  3. axis:    yes    0.000000    0.000000   25.005000   124     0.2017

  Lengths:   7.467048   7.467048  25.005000
  Angles:   90.000000  90.000000  90.000000

Effective grid spacing dv^(1/3) = 0.2055

     iter     time        total  log10-change:
                         energy   eigst   dens
iter:   1 03:25:15  -641.630473        c
iter:   2 03:26:34  -946.349564        c -1.14
iter:   3 03:28:34  -531.724509        c -0.80
iter:   4 03:30:01  -417.696381        c -1.19
iter:   5 03:31:35  -400.275328        c -1.38
iter:   6 03:33:10  -370.266746        c -1.43
iter:   7 03:34:56  -343.796613        c -1.53
iter:   8 03:37:12  -388.569126        c -1.61
iter:   9 03:38:57  -366.165112        c -1.33
iter:  10 03:40:50  -339.117122        c -1.58
iter:  11 03:42:14  -335.054723        c -1.70
iter:  12 03:43:48  -338.516892        c -1.69
iter:  13 03:45:24  -327.348681        c -1.74
iter:  14 03:46:58  -355.198448        c -1.78
iter:  15 03:49:05  -324.112452        c -1.49
iter:  16 03:50:35  -324.441802        c -1.90
iter:  17 03:52:01  -323.153959        c -1.88
iter:  18 03:53:31  -323.349342        c -1.97
iter:  19 03:55:21  -329.401428        c -1.87
iter:  20 03:56:59  -346.351602        c -1.81
iter:  21 03:58:22  -322.885533        c -1.57
iter:  22 03:59:50  -323.745397        c -2.01
iter:  23 04:01:22  -321.783160        c -1.95
iter:  24 04:03:00  -324.913352        c -2.08
iter:  25 04:04:34  -321.643323        c -1.98
iter:  26 04:05:51  -323.567355        c -2.17
iter:  27 04:07:50  -321.605360        c -2.00
iter:  28 04:09:40  -320.511380        c -2.23
iter:  29 04:11:24  -320.350959        c -2.45
iter:  30 04:12:52  -321.175964        c -2.55
iter:  31 04:14:17  -320.579307        c -2.23
iter:  32 04:16:11  -320.406018        c -2.49
iter:  33 04:17:43  -320.197068        c -2.65
iter:  34 04:19:31  -320.532129        c -2.63
iter:  35 04:20:56  -320.299411        c -2.47
iter:  36 04:22:17  -320.156517        c -2.55
iter:  37 04:23:43  -320.090553        c -2.73
iter:  38 04:25:06  -320.073514        c -3.01
iter:  39 04:26:26  -320.086313        c -3.25
iter:  40 04:28:26  -320.072356        c -3.20
iter:  41 04:29:47  -320.132828        c -3.30
iter:  42 04:31:40  -320.110360        c -2.92
iter:  43 04:33:34  -320.079205        c -2.91
iter:  44 04:34:57  -320.068423        c -3.22
iter:  45 04:37:07  -320.067557        c -3.44
iter:  46 04:38:46  -320.066154c       c -3.39
iter:  47 04:40:33  -320.066463c       c -3.56
iter:  48 04:41:58  -320.064961c       c -3.57
iter:  49 04:43:24  -320.085660        c -3.38
iter:  50 04:44:38  -320.077316        c -3.08
iter:  51 04:46:12  -320.068708        c -3.33
iter:  52 04:47:55  -320.065478        c -3.55
iter:  53 04:49:17  -320.064238c       c -3.74
iter:  54 04:51:01  -320.064591c       c -3.82
iter:  55 04:52:36  -320.065059c       c -3.82
iter:  56 04:54:14  -320.065601c       c -3.83
iter:  57 04:56:03  -320.063835c       c -3.79
iter:  58 04:58:02  -320.066036c       c -3.60
iter:  59 04:59:46  -320.066263c       c -3.59
iter:  60 05:01:19  -320.065081c       c -3.68
iter:  61 05:02:51  -320.063957c       c -3.89
iter:  62 05:04:16  -320.063988c       c -3.95
iter:  63 05:06:04  -320.065397c       c -3.88
iter:  64 05:07:32  -320.065294c       c -3.89
iter:  65 05:09:06  -320.065437c       c -3.95
iter:  66 05:10:28  -320.063805c       c -3.89
iter:  67 05:12:07  -320.064996c       c -3.84
iter:  68 05:13:43  -320.064687c       c -3.72
iter:  69 05:15:18  -320.064171c       c -3.92
iter:  70 05:17:40  -320.064032c       c -4.05c

Converged after 70 iterations.

Dipole moment: (-13.074315, -13.074315, -0.052105) |e|*Ang

Energy contributions relative to reference atoms: (reference = -1929551.160602)

Kinetic:        +80.241450
Potential:      -41.842110
External:        +0.000000
XC:            -354.797654
Entropy (-ST):   -3.493870
Local:           -1.918783
SIC:             +0.000000
--------------------------
Free energy:   -321.810966
Extrapolated:  -320.064032

Showing only first 2 kpts
 Kpt  Band  Eigenvalues  Occupancy
  0   320     -0.43603    1.34039
  0   321     -0.41847    1.26059
  0   322     -0.41214    1.23085
  0   323     -0.39950    1.17023

  1   320     -0.43021    1.31440
  1   321     -0.41794    1.25809
  1   322     -0.41174    1.22893
  1   323     -0.40193    1.18197


Fermi level: -0.36512

No gap
No difference between direct/indirect transitions
Timing:                              incl.     excl.
-----------------------------------------------------------
Basic WFS set positions:             0.001     0.001   0.0% |
Basis functions set positions:       0.161     0.161   0.0% |
LCAO WFS Initialize:                 0.378     0.080   0.0% |
 Hamiltonian:                        0.298     0.000   0.0% |
  Atomic:                            0.144     0.002   0.0% |
   XC Correction:                    0.142     0.142   0.0% |
  Calculate atomic Hamiltonians:     0.022     0.022   0.0% |
  Communicate:                       0.000     0.000   0.0% |
  Hartree integrate/restrict:        0.011     0.011   0.0% |
  Initialize Hamiltonian:            0.001     0.001   0.0% |
  Poisson:                           0.073     0.005   0.0% |
   Communicate from 1D:              0.007     0.007   0.0% |
   Communicate from 2D:              0.007     0.007   0.0% |
   Communicate to 1D:                0.008     0.008   0.0% |
   Communicate to 2D:                0.010     0.010   0.0% |
   FFT 1D:                           0.015     0.015   0.0% |
   FFT 2D:                           0.021     0.021   0.0% |
  XC 3D grid:                        0.044     0.044   0.0% |
  vbar:                              0.005     0.005   0.0% |
P tci:                               3.220     3.220   0.0% |
SCF-cycle:                        6823.349     0.232   0.0% |
 Density:                         3296.646     0.001   0.0% |
  Atomic density matrices:           0.831     0.831   0.0% |
  Mix:                               8.829     8.829   0.1% |
  Multipole moments:                 0.018     0.018   0.0% |
  Normalize:                         0.007     0.007   0.0% |
  Pseudo density:                 3286.961     0.027   0.0% |
   Calculate density matrix:         8.538     8.538   0.1% |
   Construct density:             3278.131  3278.131  48.0% |------------------|
   Symmetrize density:               0.265     0.265   0.0% |
 Hamiltonian:                       22.746     0.003   0.0% |
  Atomic:                            9.943     0.112   0.0% |
   XC Correction:                    9.831     9.831   0.1% |
  Calculate atomic Hamiltonians:     1.595     1.595   0.0% |
  Communicate:                       0.000     0.000   0.0% |
  Hartree integrate/restrict:        0.717     0.717   0.0% |
  Poisson:                           4.796     0.344   0.0% |
   Communicate from 1D:              0.484     0.484   0.0% |
   Communicate from 2D:              0.515     0.515   0.0% |
   Communicate to 1D:                0.432     0.432   0.0% |
   Communicate to 2D:                0.543     0.543   0.0% |
   FFT 1D:                           0.967     0.967   0.0% |
   FFT 2D:                           1.512     1.512   0.0% |
  XC 3D grid:                        4.836     4.836   0.1% |
  vbar:                              0.856     0.856   0.0% |
 LCAO eigensolver:                3503.724     1.256   0.0% |
  Calculate projections:            81.410    81.410   1.2% |
  DenseAtomicCorrection:           171.606   171.606   2.5% ||
  Distribute overlap matrix:         2.376     2.376   0.0% |
  Orbital Layouts:                2538.533  2538.533  37.2% |--------------|
  Potential matrix:                684.481   684.481  10.0% |---|
  Sum over cells:                   24.062    24.062   0.4% |
ST tci:                              1.514     1.514   0.0% |
Set symmetry:                        0.000     0.000   0.0% |
TCI: Evaluate splines:               0.341     0.341   0.0% |
mktci:                               0.021     0.021   0.0% |
Other:                               3.279     3.279   0.0% |
-----------------------------------------------------------
Total:                                      6832.264 100.0%

Memory usage: 4.71 GiB
Date: Wed Mar  4 05:17:40 2026
