
  ___ ___ ___ _ _ _  
 |   |   |_  | | | | 
 | | | | | . | | | | 
 |__ |  _|___|_____|  25.7.0
 |___|_|             

User:   mikei@Z790-AORUS-ELITE-AX
Date:   Fri Feb 20 17:46:16 2026
Arch:   x86_64
Pid:    89048
CWD:    /home/mikei/Dokumenty/code/cemea/ocx
Python: 3.10.16
gpaw:   /home/mikei/.pyenv/versions/cemea-env/lib/python3.10/site-packages/gpaw
_gpaw:  /home/mikei/.pyenv/versions/cemea-env/lib/python3.10/site-packages/
        _gpaw.cpython-310-x86_64-linux-gnu.so
ase:    /home/mikei/.pyenv/versions/cemea-env/lib/python3.10/site-packages/ase (version 3.27.0)
numpy:  /home/mikei/.pyenv/versions/cemea-env/lib/python3.10/site-packages/numpy (version 2.2.6)
scipy:  /home/mikei/.pyenv/versions/cemea-env/lib/python3.10/site-packages/scipy (version 1.15.3)
libxc:  2.x.y
units:  Angstrom and eV
cores: 1
OpenMP: False
OMP_NUM_THREADS: 1

Input parameters:
  basis: dzp
  convergence: {density: 0.0001,
                eigenstates: 1e-05,
                energy: 1e-05}
  kpts: [4 4 1]
  mode: lcao

System changes: positions, numbers, cell, pbc, initial_charges, initial_magmoms 

Initialize ...

species:
  Mo:
    name: Molybdenum
    id: ac24daaf086600a00ce6d19a74574df1
    Z: 42.0
    valence: 14
    core: 28
    charge: 0.0
    file: /home/mikei/.pyenv/versions/cemea-env/lib/python3.10/site-packages/gpaw_data/setups/Mo.LDA.gz
    compensation charges: {type: gauss,
                           rc: 0.38,
                           lmax: 2}
    cutoffs: {filter: 2.16,
              core: 1.42}
    projectors:
      #              energy  rcut
      - 4s(2.00)   -64.384   1.238
      - 5s(1.00)    -4.319   1.238
      - 4p(6.00)   -38.595   1.296
      - 5p(0.00)    -1.161   1.296
      - 4d(5.00)    -3.933   1.296
      -  d          23.278   1.296
  
    # LCAO basis set for Mo:
    #   Name: dzp
    #   File: /home/mikei/.pyenv/versions/cemea-env/lib/python3.10/site-packages/gpaw_data/setups/Mo.dzp.basis.gz
    #   Number of radial functions: 11
    #   Number of spherical harmonics: 29
    #     l=0, rc=3.5469 Bohr: 4s-sz confined orbital
    #     l=0, rc=10.0469 Bohr: 5s-sz confined orbital
    #     l=1, rc=4.0781 Bohr: 4p-sz confined orbital
    #     l=1, rc=14.0938 Bohr: 5p-sz confined orbital
    #     l=2, rc=7.2031 Bohr: 4d-sz confined orbital
    #     l=0, rc=2.1250 Bohr: 4s-dz split-valence wave
    #     l=0, rc=6.1250 Bohr: 5s-dz split-valence wave
    #     l=1, rc=2.5469 Bohr: 4p-dz split-valence wave
    #     l=1, rc=8.7656 Bohr: 5p-dz split-valence wave
    #     l=2, rc=4.2344 Bohr: 4d-dz split-valence wave
    #     l=1, rc=10.0469 Bohr: p-type Gaussian polarization
    #   Number of RI-basis functions 0

  C:
    name: Carbon
    id: d60576a1f549371a163e72552ca58787
    Z: 6.0
    valence: 4
    core: 2
    charge: 0.0
    file: /home/mikei/.pyenv/versions/cemea-env/lib/python3.10/site-packages/gpaw_data/setups/C.LDA.gz
    compensation charges: {type: gauss,
                           rc: 0.20,
                           lmax: 2}
    cutoffs: {filter: 1.14,
              core: 1.14}
    projectors:
      #              energy  rcut
      - 2s(2.00)   -13.639   0.635
      - 2p(2.00)    -5.414   0.635
      -  s          13.573   0.635
      -  p          21.797   0.635
      -  d           0.000   0.635
  
    # LCAO basis set for C:
    #   Name: dzp
    #   File: /home/mikei/.pyenv/versions/cemea-env/lib/python3.10/site-packages/gpaw_data/setups/C.dzp.basis.gz
    #   Number of radial functions: 5
    #   Number of spherical harmonics: 13
    #     l=0, rc=5.5469 Bohr: 2s-sz confined orbital
    #     l=1, rc=6.6719 Bohr: 2p-sz confined orbital
    #     l=0, rc=3.0312 Bohr: 2s-dz split-valence wave
    #     l=1, rc=3.7500 Bohr: 2p-dz split-valence wave
    #     l=2, rc=6.6719 Bohr: d-type Gaussian polarization
    #   Number of RI-basis functions 0

Reference energy: -2212621.891206  # eV

Spin-paired calculation

Convergence criteria:
 Maximum [total energy] change in last 3 cyles: 1e-05 eV / valence electron
 Maximum integral of absolute [dens]ity change: 0.0001 electrons / valence electron
 Maximum integral of absolute [eigenst]ate change: 1e-05 eV^2 / valence electron
 Maximum number of scf [iter]ations: 333
 (Square brackets indicate name in SCF output, whereas a 'c' in
 the SCF output indicates the quantity has converged.)

Symmetries present (total): 2

  ( 1  0  0)  ( 1  0  0)
  ( 0  1  0)  ( 0 -1  0)
  ( 0  0  1)  ( 0  0  1)

16 k-points: 4 x 4 x 1 Monkhorst-Pack grid
4 k-points in the irreducible part of the Brillouin zone
       k-points in crystal coordinates                weights
   0:     0.12500000    0.12500000    0.00000000          4/16
   1:     0.12500000    0.37500000    0.00000000          4/16
   2:     0.37500000    0.12500000    0.00000000          4/16
   3:     0.37500000    0.37500000    0.00000000          4/16

Wave functions: LCAO
  Diagonalizer: Serial LAPACK
  Atomic Correction: dense with blas
  Data-type: complex
 

Occupation numbers: Fermi-Dirac:
  width: 0.1000  # eV
 

Eigensolver
   LCAO using direct dense diagonalizer 

Densities:
  Coarse grid: 192*40*92 grid
  Fine grid: 384*80*184 grid
  Total Charge: 0.000000 

Density mixing:
  Method: separate
  Backend: pulay
  Linear mixing parameter: 0.05
  old densities: 5
  Damping of long wavelength oscillations: 50 

Hamiltonian:
  XC and Coulomb potentials evaluated on a 384*80*184 grid
  Using the LDA Exchange-Correlation functional
  Interpolation: tri-quintic (5. degree polynomial)
  Poisson solver: FastPoissonSolver using
    Stencil: 6*3+1=19 point O(h^6) finite-difference Laplacian
    FFT axes: [np.int64(0), np.int64(1), np.int64(2)]
    FST axes: []
 

Memory estimate:
  Process memory now: 2223.90 MiB
  Calculator: 694.80 MiB
    Density: 299.84 MiB
      Arrays: 140.16 MiB
      Localized functions: 105.77 MiB
      Mixer: 53.91 MiB
    Hamiltonian: 98.51 MiB
      Arrays: 91.64 MiB
      XC: 0.00 MiB
      Poisson: 0.00 MiB
      vbar: 6.87 MiB
    Wavefunctions: 296.45 MiB
      C [qnM]: 9.03 MiB
      S, T [2 x qmm]: 66.12 MiB
      P [aqMi]: 1.45 MiB
      BasisFunctions: 219.85 MiB
      Eigensolver: 0.00 MiB

Total number of cores used: 1

Number of atoms: 32
Number of atomic orbitals: 736
Number of bands in calculation: 201
Number of valence electrons: 328
Bands to converge: occupied

... initialized

Initializing position-dependent things.

Density initialized from atomic densities
      .----------------------------------------------------------------------------------------------.  
     /|                                                                                              |  
    / |                                                                                              |  
   /  |                                                                                              |  
  /   |                                                                                              |  
 *    |                                                                                              |  
 |    |                                                                                              |  
 |    |                                                                                              |  
 |    |                                                                                              |  
 |    |                                                                                              |  
 |    |                                                                                              |  
 |    |                      Mo         Mo        Mo        Mo        Mo                             |  
 |    |                                                                                              |  
 |    |                    Mo        Mo        Mo        Mo        Mo                                |  
 |    |                      C          C         C         C         C         C                    |  
 |    |                          Mo        Mo         Mo        Mo        Mo                         |  
 |    |                    C         C         C         C         C          C                      |  
 |    |                        Mo        Mo        Mo        Mo        Mo                            |  
 |    |                                                                                              |  
 |    |                                                                                              |  
 |    |                                                                                              |  
 |    |                                                                                              |  
 |    .----------------------------------------------------------------------------------------------.  
 |   /                                                                                              /   
 |  /                                                                                              /    
 | /                                                                                              /     
 |/                                                                                              /      
 *----------------------------------------------------------------------------------------------*       

Atomic positions and initial magnetic moments

Positions:
   0 Mo    10.060000    2.060000   10.060000    ( 0.0000,  0.0000,  0.0000)
   1 C     10.060000    2.060000    8.000000    ( 0.0000,  0.0000,  0.0000)
   2 Mo    10.060000    6.180000   10.060000    ( 0.0000,  0.0000,  0.0000)
   3 C     10.060000    6.180000    8.000000    ( 0.0000,  0.0000,  0.0000)
   4 Mo    12.120000    0.000000    8.000000    ( 0.0000,  0.0000,  0.0000)
   5 Mo    14.180000    2.060000   10.060000    ( 0.0000,  0.0000,  0.0000)
   6 C     14.180000    2.060000    8.000000    ( 0.0000,  0.0000,  0.0000)
   7 Mo    12.120000    4.120000    8.000000    ( 0.0000,  0.0000,  0.0000)
   8 Mo    14.180000    6.180000   10.060000    ( 0.0000,  0.0000,  0.0000)
   9 C     14.180000    6.180000    8.000000    ( 0.0000,  0.0000,  0.0000)
  10 Mo    16.240000    0.000000    8.000000    ( 0.0000,  0.0000,  0.0000)
  11 Mo    18.300000    2.060000   10.060000    ( 0.0000,  0.0000,  0.0000)
  12 C     18.300000    2.060000    8.000000    ( 0.0000,  0.0000,  0.0000)
  13 Mo    16.240000    4.120000    8.000000    ( 0.0000,  0.0000,  0.0000)
  14 Mo    18.300000    6.180000   10.060000    ( 0.0000,  0.0000,  0.0000)
  15 C     18.300000    6.180000    8.000000    ( 0.0000,  0.0000,  0.0000)
  16 Mo    20.360000    0.000000    8.000000    ( 0.0000,  0.0000,  0.0000)
  17 Mo    22.420000    2.060000   10.060000    ( 0.0000,  0.0000,  0.0000)
  18 C     22.420000    2.060000    8.000000    ( 0.0000,  0.0000,  0.0000)
  19 Mo    20.360000    4.120000    8.000000    ( 0.0000,  0.0000,  0.0000)
  20 Mo    22.420000    6.180000   10.060000    ( 0.0000,  0.0000,  0.0000)
  21 C     22.420000    6.180000    8.000000    ( 0.0000,  0.0000,  0.0000)
  22 Mo    24.480000    0.000000    8.000000    ( 0.0000,  0.0000,  0.0000)
  23 Mo    26.540000    2.060000   10.060000    ( 0.0000,  0.0000,  0.0000)
  24 C     26.540000    2.060000    8.000000    ( 0.0000,  0.0000,  0.0000)
  25 Mo    24.480000    4.120000    8.000000    ( 0.0000,  0.0000,  0.0000)
  26 Mo    26.540000    6.180000   10.060000    ( 0.0000,  0.0000,  0.0000)
  27 C     26.540000    6.180000    8.000000    ( 0.0000,  0.0000,  0.0000)
  28 Mo    28.600000    0.000000    8.000000    ( 0.0000,  0.0000,  0.0000)
  29 C     30.660000    2.060000    8.000000    ( 0.0000,  0.0000,  0.0000)
  30 Mo    28.600000    4.120000    8.000000    ( 0.0000,  0.0000,  0.0000)
  31 C     30.660000    6.180000    8.000000    ( 0.0000,  0.0000,  0.0000)

Unit cell:
           periodic     x           y           z      points  spacing
  1. axis:    yes   38.660000    0.000000    0.000000   192     0.2014
  2. axis:    yes    0.000000    8.240000    0.000000    40     0.2060
  3. axis:    yes    0.000000    0.000000   18.060000    92     0.1963

  Lengths:  38.660000   8.240000  18.060000
  Angles:   90.000000  90.000000  90.000000

Effective grid spacing dv^(1/3) = 0.2012

     iter     time        total  log10-change:
                         energy   eigst   dens
iter:   1 17:46:28  -245.481100        c
iter:   2 17:46:41  -233.423920        c -0.83
iter:   3 17:46:55  -311.754499        c -0.87
iter:   4 17:47:09  -236.458079        c -0.70
iter:   5 17:47:25  -214.365318        c -0.89
iter:   6 17:47:39  -207.291110        c -1.03
iter:   7 17:47:52  -206.946808        c -1.13
iter:   8 17:48:05  -203.747570        c -1.13
iter:   9 17:48:18  -201.513016        c -1.22
iter:  10 17:48:32  -203.499818        c -1.30
iter:  11 17:48:43  -200.107806        c -1.22
iter:  12 17:49:01  -199.421971        c -1.36
iter:  13 17:49:18  -199.926287        c -1.47
iter:  14 17:49:33  -198.936574        c -1.43
iter:  15 17:49:51  -198.553769        c -1.59
iter:  16 17:50:02  -198.660076        c -1.73
iter:  17 17:50:14  -199.809033        c -1.62
iter:  18 17:50:29  -198.167628        c -1.47
iter:  19 17:50:43  -198.822885        c -1.89
iter:  20 17:51:00  -198.421081        c -1.58
iter:  21 17:51:14  -198.012790        c -1.73
iter:  22 17:51:31  -197.977501        c -1.96
iter:  23 17:51:44  -198.116440        c -2.05
iter:  24 17:51:57  -197.935648        c -1.80
iter:  25 17:52:11  -197.949268        c -2.08
iter:  26 17:52:26  -197.976385        c -2.04
iter:  27 17:52:41  -197.982708        c -1.93
iter:  28 17:52:56  -197.863669        c -2.00
iter:  29 17:53:09  -198.020493        c -2.13
iter:  30 17:53:25  -197.853612        c -1.97
iter:  31 17:53:39  -197.843751        c -2.21
iter:  32 17:53:52  -197.859725        c -2.25
iter:  33 17:54:07  -197.842108        c -2.25
iter:  34 17:54:18  -197.857879        c -2.24
iter:  35 17:54:35  -197.908843        c -2.28
iter:  36 17:54:50  -197.928870        c -2.04
iter:  37 17:55:04  -197.889793        c -2.12
iter:  38 17:55:15  -197.833216        c -2.23
iter:  39 17:55:30  -197.834475        c -2.38
iter:  40 17:55:42  -197.828989        c -2.46
iter:  41 17:56:00  -197.843887        c -2.48
iter:  42 17:56:16  -197.868889        c -2.43
iter:  43 17:56:27  -197.835034        c -2.17
iter:  44 17:56:41  -197.911354        c -2.38
iter:  45 17:56:58  -197.838243        c -2.16
iter:  46 17:57:15  -197.835401        c -2.50
iter:  47 17:57:28  -197.828335        c -2.57
iter:  48 17:57:44  -197.837405        c -2.60
iter:  49 17:57:55  -197.833066        c -2.61
iter:  50 17:58:08  -197.841860        c -2.63
iter:  51 17:58:22  -197.832312        c -2.31
iter:  52 17:58:38  -197.835510        c -2.59
iter:  53 17:58:49  -197.843562        c -2.53
iter:  54 17:59:02  -197.826822        c -2.58
iter:  55 17:59:16  -197.826946        c -2.67
iter:  56 17:59:32  -197.834190        c -2.81
iter:  57 17:59:47  -197.828108        c -2.74
iter:  58 18:00:01  -197.829761        c -2.82
iter:  59 18:00:15  -197.827181c       c -2.70
iter:  60 18:00:26  -197.846173        c -2.61
iter:  61 18:00:37  -197.831260        c -2.60
iter:  62 18:00:48  -197.824306        c -2.82
iter:  63 18:01:02  -197.827122        c -2.80
iter:  64 18:01:16  -197.827835        c -2.94
iter:  65 18:01:32  -197.829696c       c -2.96
iter:  66 18:01:46  -197.825371        c -2.92
iter:  67 18:01:59  -197.827107        c -2.72
iter:  68 18:02:16  -197.838638        c -2.91
iter:  69 18:02:27  -197.828843        c -2.77
iter:  70 18:02:42  -197.825970        c -2.93
iter:  71 18:02:55  -197.825429        c -3.01
iter:  72 18:03:09  -197.828134c       c -3.08
iter:  73 18:03:25  -197.826314c       c -3.12
iter:  74 18:03:38  -197.824517        c -3.13
iter:  75 18:03:52  -197.828171        c -3.09
iter:  76 18:04:06  -197.834219        c -2.98
iter:  77 18:04:17  -197.830775        c -2.84
iter:  78 18:04:32  -197.825774        c -3.08
iter:  79 18:04:48  -197.826886        c -3.16
iter:  80 18:05:02  -197.827222c       c -3.34
iter:  81 18:05:17  -197.826644c       c -3.35
iter:  82 18:05:28  -197.824630c       c -3.27
iter:  83 18:05:39  -197.826125c       c -3.00
iter:  84 18:05:56  -197.831770        c -3.23
iter:  85 18:06:13  -197.827257        c -3.08
iter:  86 18:06:29  -197.826395        c -3.36
iter:  87 18:06:45  -197.826549c       c -3.47
iter:  88 18:06:58  -197.827504c       c -3.50
iter:  89 18:07:13  -197.826735c       c -3.49
iter:  90 18:07:25  -197.825089c       c -3.50
iter:  91 18:07:43  -197.827296c       c -3.28
iter:  92 18:07:57  -197.827981c       c -3.48
iter:  93 18:08:12  -197.827542c       c -3.42
iter:  94 18:08:28  -197.825806c       c -3.53
iter:  95 18:08:42  -197.826638c       c -3.43
iter:  96 18:08:53  -197.827013c       c -3.68
iter:  97 18:09:07  -197.826481c       c -3.73
iter:  98 18:09:18  -197.826378c       c -3.69
iter:  99 18:09:34  -197.826564c       c -3.65
iter: 100 18:09:47  -197.829856        c -3.60
iter: 101 18:10:01  -197.826998        c -3.23
iter: 102 18:10:15  -197.826373        c -3.66
iter: 103 18:10:28  -197.826741c       c -3.79
iter: 104 18:10:44  -197.826729c       c -3.94
iter: 105 18:10:57  -197.826769c       c -3.94
iter: 106 18:11:13  -197.825638c       c -3.89
iter: 107 18:11:26  -197.827119c       c -3.54
iter: 108 18:11:42  -197.827678c       c -3.66
iter: 109 18:11:57  -197.826749c       c -3.75
iter: 110 18:12:10  -197.826815c       c -4.00c

Converged after 110 iterations.

Dipole moment: (-1.365861, -13.931885, 1.982111) |e|*Ang

Energy contributions relative to reference atoms: (reference = -2212621.891206)

Kinetic:       -527.738022
Potential:     +359.400166
External:        +0.000000
XC:             -30.755961
Entropy (-ST):   -2.937426
Local:           +2.735716
SIC:             +0.000000
--------------------------
Free energy:   -199.295527
Extrapolated:  -197.826815

Showing only first 2 kpts
 Kpt  Band  Eigenvalues  Occupancy
  0   162     -3.39977    0.99054
  0   163     -3.36169    0.80278
  0   164     -3.32427    0.63129
  0   165     -3.30851    0.56525

  1   162     -3.43573    1.16871
  1   163     -3.41425    1.06288
  1   164     -3.36867    0.83655
  1   165     -3.35049    0.74957


Fermi level: -3.40166

No gap
No difference between direct/indirect transitions
Timing:                              incl.     excl.
-----------------------------------------------------------
Basic WFS set positions:             0.001     0.001   0.0% |
Basis functions set positions:       0.124     0.124   0.0% |
LCAO WFS Initialize:                 0.838     0.080   0.0% |
 Hamiltonian:                        0.757     0.000   0.0% |
  Atomic:                            0.112     0.001   0.0% |
   XC Correction:                    0.111     0.111   0.0% |
  Calculate atomic Hamiltonians:     0.013     0.013   0.0% |
  Communicate:                       0.000     0.000   0.0% |
  Hartree integrate/restrict:        0.047     0.047   0.0% |
  Initialize Hamiltonian:            0.000     0.000   0.0% |
  Poisson:                           0.423     0.029   0.0% |
   Communicate from 1D:              0.044     0.044   0.0% |
   Communicate from 2D:              0.045     0.045   0.0% |
   Communicate to 1D:                0.029     0.029   0.0% |
   Communicate to 2D:                0.044     0.044   0.0% |
   FFT 1D:                           0.062     0.062   0.0% |
   FFT 2D:                           0.170     0.170   0.0% |
  XC 3D grid:                        0.154     0.154   0.0% |
  vbar:                              0.008     0.008   0.0% |
P tci:                               0.435     0.435   0.0% |
SCF-cycle:                        1549.630     0.280   0.0% |
 Density:                          765.645     0.002   0.0% |
  Atomic density matrices:           0.342     0.342   0.0% |
  Mix:                              17.285    17.285   1.1% |
  Multipole moments:                 0.020     0.020   0.0% |
  Normalize:                         0.023     0.023   0.0% |
  Pseudo density:                  747.974     0.104   0.0% |
   Calculate density matrix:         3.592     3.592   0.2% |
   Construct density:              742.568   742.568  47.8% |------------------|
   Symmetrize density:               1.710     1.710   0.1% |
 Hamiltonian:                       82.866     0.006   0.0% |
  Atomic:                           12.279     0.128   0.0% |
   XC Correction:                   12.151    12.151   0.8% |
  Calculate atomic Hamiltonians:     1.460     1.460   0.1% |
  Communicate:                       0.000     0.000   0.0% |
  Hartree integrate/restrict:        4.750     4.750   0.3% |
  Poisson:                          45.207     2.786   0.2% |
   Communicate from 1D:              4.817     4.817   0.3% |
   Communicate from 2D:              4.857     4.857   0.3% |
   Communicate to 1D:                3.271     3.271   0.2% |
   Communicate to 2D:                4.782     4.782   0.3% |
   FFT 1D:                           6.819     6.819   0.4% |
   FFT 2D:                          17.874    17.874   1.2% |
  XC 3D grid:                       17.731    17.731   1.1% |
  vbar:                              1.433     1.433   0.1% |
 LCAO eigensolver:                 700.840     0.463   0.0% |
  Calculate projections:            38.120    38.120   2.5% ||
  DenseAtomicCorrection:            47.314    47.314   3.0% ||
  Distribute overlap matrix:         0.506     0.506   0.0% |
  Orbital Layouts:                 404.976   404.976  26.1% |---------|
  Potential matrix:                205.704   205.704  13.2% |----|
  Sum over cells:                    3.756     3.756   0.2% |
ST tci:                              0.210     0.210   0.0% |
Set symmetry:                        0.001     0.001   0.0% |
TCI: Evaluate splines:               0.123     0.123   0.0% |
mktci:                               0.004     0.004   0.0% |
Other:                               2.617     2.617   0.2% |
-----------------------------------------------------------
Total:                                      1553.984 100.0%

Memory usage: 2.17 GiB
Date: Fri Feb 20 18:12:10 2026
