
  ___ ___ ___ _ _ _  
 |   |   |_  | | | | 
 | | | | | . | | | | 
 |__ |  _|___|_____|  25.7.0
 |___|_|             

User:   ubuntu@third-test
Date:   Mon Feb 16 08:57:39 2026
Arch:   x86_64
Pid:    2718679
CWD:    /mnt/vdd1/work/cemea/fairchem/src/fairchem/applications/ocx/mo_h_adsorption_workflow
Python: 3.10.16
gpaw:   /home/ubuntu/.pyenv/versions/cemea-env/lib/python3.10/site-packages/gpaw
_gpaw:  /home/ubuntu/.pyenv/versions/cemea-env/lib/python3.10/site-packages/
        _gpaw.cpython-310-x86_64-linux-gnu.so
ase:    /home/ubuntu/.pyenv/versions/cemea-env/lib/python3.10/site-packages/ase (version 3.27.0)
numpy:  /home/ubuntu/.pyenv/versions/cemea-env/lib/python3.10/site-packages/numpy (version 2.2.6)
scipy:  /home/ubuntu/.pyenv/versions/cemea-env/lib/python3.10/site-packages/scipy (version 1.15.3)
libxc:  2.x.y
units:  Angstrom and eV
cores: 1
OpenMP: False
OMP_NUM_THREADS: 1

Input parameters:
  basis: dzp
  convergence: {density: 0.0001,
                eigenstates: 1e-05,
                energy: 1e-05}
  kpts: [1 1 1]
  mode: lcao

System changes: positions, numbers, cell, pbc, initial_charges, initial_magmoms 

Initialize ...

species:
  H:
    name: Hydrogen
    id: 4766778ce56282eaa64abeb28b7c1de3
    Z: 1.0
    valence: 1
    core: 0
    charge: 0.0
    file: /home/ubuntu/.pyenv/versions/cemea-env/lib/python3.10/site-packages/gpaw_data/setups/H.LDA.gz
    compensation charges: {type: gauss,
                           rc: 0.15,
                           lmax: 2}
    cutoffs: {filter: 0.85,
              core: 0.53}
    projectors:
      #              energy  rcut
      - 1s(1.00)    -6.353   0.476
      -  s          20.858   0.476
      -  p           0.000   0.476
  
    # LCAO basis set for H:
    #   Name: dzp
    #   File: /home/ubuntu/.pyenv/versions/cemea-env/lib/python3.10/site-packages/gpaw_data/setups/H.dzp.basis.gz
    #   Number of radial functions: 3
    #   Number of spherical harmonics: 5
    #     l=0, rc=6.4219 Bohr: 1s-sz confined orbital
    #     l=0, rc=3.6094 Bohr: 1s-dz split-valence wave
    #     l=1, rc=6.4219 Bohr: p-type Gaussian polarization
    #   Number of RI-basis functions 0

Reference energy: -24.257917  # eV

Spin-paired calculation

Convergence criteria:
 Maximum [total energy] change in last 3 cyles: 1e-05 eV / valence electron
 Maximum integral of absolute [dens]ity change: 0.0001 electrons / valence electron
 Maximum integral of absolute [eigenst]ate change: 1e-05 eV^2 / valence electron
 Maximum number of scf [iter]ations: 333
 (Square brackets indicate name in SCF output, whereas a 'c' in
 the SCF output indicates the quantity has converged.)

Symmetries present (total): 16

  ( 1  0  0)  ( 1  0  0)  ( 1  0  0)  ( 1  0  0)  ( 0  1  0)  ( 0  1  0)
  ( 0  1  0)  ( 0  1  0)  ( 0 -1  0)  ( 0 -1  0)  ( 1  0  0)  ( 1  0  0)
  ( 0  0  1)  ( 0  0 -1)  ( 0  0  1)  ( 0  0 -1)  ( 0  0  1)  ( 0  0 -1)

  ( 0  1  0)  ( 0  1  0)  ( 0 -1  0)  ( 0 -1  0)  ( 0 -1  0)  ( 0 -1  0)
  (-1  0  0)  (-1  0  0)  ( 1  0  0)  ( 1  0  0)  (-1  0  0)  (-1  0  0)
  ( 0  0  1)  ( 0  0 -1)  ( 0  0  1)  ( 0  0 -1)  ( 0  0  1)  ( 0  0 -1)

  (-1  0  0)  (-1  0  0)  (-1  0  0)  (-1  0  0)
  ( 0  1  0)  ( 0  1  0)  ( 0 -1  0)  ( 0 -1  0)
  ( 0  0  1)  ( 0  0 -1)  ( 0  0  1)  ( 0  0 -1)

1 k-point (Gamma)
1 k-point in the irreducible part of the Brillouin zone
       k-points in crystal coordinates                weights
   0:     0.00000000    0.00000000    0.00000000          1/1

Wave functions: LCAO
  Diagonalizer: Serial LAPACK
  Atomic Correction: dense with blas
  Data-type: float
 

Occupation numbers: # Zero width 

Eigensolver
   LCAO using direct dense diagonalizer 

Densities:
  Coarse grid: 100*100*104 grid
  Fine grid: 200*200*208 grid
  Total Charge: 0.000000 

Density mixing:
  Method: separate
  Backend: pulay
  Linear mixing parameter: 0.25
  old densities: 3
  Damping of long wavelength oscillations: 1  # (no daming) 

Hamiltonian:
  XC and Coulomb potentials evaluated on a 200*200*208 grid
  Using the LDA Exchange-Correlation functional
  Interpolation: tri-quintic (5. degree polynomial)
  Poisson solver: FastPoissonSolver using
    Stencil: 6*3+1=19 point O(h^6) finite-difference Laplacian
    FFT axes: []
    FST axes: [np.int64(0), np.int64(1), np.int64(2)]
 

Memory estimate:
  Process memory now: 1295.51 MiB
  Calculator: 383.88 MiB
    Density: 249.74 MiB
      Arrays: 203.03 MiB
      Localized functions: 0.50 MiB
      Mixer: 46.21 MiB
    Hamiltonian: 132.82 MiB
      Arrays: 132.78 MiB
      XC: 0.00 MiB
      Poisson: 0.00 MiB
      vbar: 0.04 MiB
    Wavefunctions: 1.31 MiB
      C [qnM]: 0.00 MiB
      S, T [2 x qmm]: 0.00 MiB
      P [aqMi]: 0.00 MiB
      BasisFunctions: 1.31 MiB
      Eigensolver: 0.00 MiB

Total number of cores used: 1

Number of atoms: 2
Number of atomic orbitals: 10
Number of bands in calculation: 2
Number of valence electrons: 2
Bands to converge: occupied

... initialized

Initializing position-dependent things.

Density initialized from atomic densities
             .------------------------------------------------.  
            /|                                                |  
           / |                                                |  
          /  |                                                |  
         /   |                                                |  
        /    |                                                |  
       /     |                                                |  
      /      |                                                |  
     /       |                                                |  
    /        |                                                |  
   /         |                                                |  
  /          |                                                |  
 *           |                                                |  
 |           |                                                |  
 |           |                                                |  
 |           |                                                |  
 |           |                                                |  
 |           |                                                |  
 |           |                 H                              |  
 |           |                 H                              |  
 |           |                                                |  
 |           |                                                |  
 |           |                                                |  
 |           |                                                |  
 |           |                                                |  
 |           .------------------------------------------------.  
 |          /                                                /   
 |         /                                                /    
 |        /                                                /     
 |       /                                                /      
 |      /                                                /       
 |     /                                                /        
 |    /                                                /         
 |   /                                                /          
 |  /                                                /           
 | /                                                /            
 |/                                                /             
 *------------------------------------------------*              

Atomic positions and initial magnetic moments

Positions:
   0 H     10.000000   10.000000   10.000000    ( 0.0000,  0.0000,  0.0000)
   1 H     10.000000   10.000000   10.750000    ( 0.0000,  0.0000,  0.0000)

Unit cell:
           periodic     x           y           z      points  spacing
  1. axis:    no    20.000000    0.000000    0.000000   100     0.2000
  2. axis:    no     0.000000   20.000000    0.000000   100     0.2000
  3. axis:    no     0.000000    0.000000   20.750000   104     0.1995

  Lengths:  20.000000  20.000000  20.750000
  Angles:   90.000000  90.000000  90.000000

Effective grid spacing dv^(1/3) = 0.1998

     iter     time        total  log10-change:
                         energy   eigst   dens
iter:   1 08:57:45    -6.803403        c
iter:   2 08:57:47    -6.613268        c -0.50
iter:   3 08:57:49    -6.438351        c -0.66
iter:   4 08:57:51    -6.438922        c -2.03
iter:   5 08:57:53    -6.438413        c -1.93
iter:   6 08:57:55    -6.438413        c -4.01c
iter:   7 08:57:58    -6.438413c       c -4.15c

Converged after 7 iterations.

Dipole moment: (0.000000, 0.000000, 0.000000) |e|*Ang

Energy contributions relative to reference atoms: (reference = -24.257917)

Kinetic:         +5.502119
Potential:       -6.967241
External:        +0.000000
XC:              -4.948119
Entropy (-ST):   +0.000000
Local:           -0.025172
SIC:             +0.000000
--------------------------
Free energy:     -6.438413
Extrapolated:    -6.438413

 Band  Eigenvalues  Occupancy
    0    -10.14570    2.00000
    1      2.23660    0.00000

Fermi level: -3.95455

Gap: 12.382 eV
Transition (v -> c):
  (s=0, k=0, n=0, [0.00, 0.00, 0.00]) -> (s=0, k=0, n=1, [0.00, 0.00, 0.00])
No difference between direct/indirect transitions
Timing:                              incl.     excl.
-----------------------------------------------------------
Basic WFS set positions:             0.001     0.001   0.0% |
Basis functions set positions:       0.002     0.002   0.0% |
LCAO WFS Initialize:                 1.790     0.097   0.5% |
 Hamiltonian:                        1.693     0.000   0.0% |
  Atomic:                            0.005     0.000   0.0% |
   XC Correction:                    0.005     0.005   0.0% |
  Calculate atomic Hamiltonians:     0.001     0.001   0.0% |
  Communicate:                       0.000     0.000   0.0% |
  Hartree integrate/restrict:        0.122     0.122   0.7% |
  Initialize Hamiltonian:            0.000     0.000   0.0% |
  Poisson:                           1.116     0.048   0.3% |
   Communicate from 1D:              0.163     0.163   0.9% |
   Communicate from 2D:              0.154     0.154   0.8% |
   Communicate to 1D:                0.145     0.145   0.8% |
   Communicate to 2D:                0.156     0.156   0.8% |
   FFT 1D:                           0.180     0.180   1.0% |
   FFT 2D:                           0.270     0.270   1.5% ||
  XC 3D grid:                        0.419     0.419   2.2% ||
  vbar:                              0.030     0.030   0.2% |
P tci:                               0.001     0.001   0.0% |
SCF-cycle:                          12.928     0.004   0.0% |
 Density:                            3.055     0.000   0.0% |
  Atomic density matrices:           0.004     0.004   0.0% |
  Mix:                               1.861     1.861  10.0% |---|
  Multipole moments:                 0.001     0.001   0.0% |
  Normalize:                         0.003     0.003   0.0% |
  Pseudo density:                    1.185     0.016   0.1% |
   Calculate density matrix:         0.000     0.000   0.0% |
   Construct density:                0.011     0.011   0.1% |
   Symmetrize density:               1.158     1.158   6.2% |-|
 Hamiltonian:                        9.851     0.001   0.0% |
  Atomic:                            0.031     0.002   0.0% |
   XC Correction:                    0.028     0.028   0.2% |
  Calculate atomic Hamiltonians:     0.003     0.003   0.0% |
  Communicate:                       0.000     0.000   0.0% |
  Hartree integrate/restrict:        0.961     0.961   5.2% |-|
  Poisson:                           6.108     0.186   1.0% |
   Communicate from 1D:              0.871     0.871   4.7% |-|
   Communicate from 2D:              0.889     0.889   4.8% |-|
   Communicate to 1D:                0.841     0.841   4.5% |-|
   Communicate to 2D:                0.879     0.879   4.7% |-|
   FFT 1D:                           0.907     0.907   4.9% |-|
   FFT 2D:                           1.535     1.535   8.2% |--|
  XC 3D grid:                        2.555     2.555  13.7% |----|
  vbar:                              0.192     0.192   1.0% |
 LCAO eigensolver:                   0.018     0.000   0.0% |
  Calculate projections:             0.000     0.000   0.0% |
  DenseAtomicCorrection:             0.001     0.001   0.0% |
  Distribute overlap matrix:         0.000     0.000   0.0% |
  Orbital Layouts:                   0.001     0.001   0.0% |
  Potential matrix:                  0.014     0.014   0.1% |
ST tci:                              0.000     0.000   0.0% |
Set symmetry:                        0.002     0.002   0.0% |
TCI: Evaluate splines:               0.006     0.006   0.0% |
mktci:                               0.001     0.001   0.0% |
Other:                               3.886     3.886  20.9% |-------|
-----------------------------------------------------------
Total:                                        18.617 100.0%

Memory usage: 1.27 GiB
Date: Mon Feb 16 08:57:58 2026
