
  ___ ___ ___ _ _ _  
 |   |   |_  | | | | 
 | | | | | . | | | | 
 |__ |  _|___|_____|  25.7.0
 |___|_|             

User:   mikei@Z790-AORUS-ELITE-AX
Date:   Fri Feb 20 09:14:19 2026
Arch:   x86_64
Pid:    89048
CWD:    /home/mikei/Dokumenty/code/cemea/ocx
Python: 3.10.16
gpaw:   /home/mikei/.pyenv/versions/cemea-env/lib/python3.10/site-packages/gpaw
_gpaw:  /home/mikei/.pyenv/versions/cemea-env/lib/python3.10/site-packages/
        _gpaw.cpython-310-x86_64-linux-gnu.so
ase:    /home/mikei/.pyenv/versions/cemea-env/lib/python3.10/site-packages/ase (version 3.27.0)
numpy:  /home/mikei/.pyenv/versions/cemea-env/lib/python3.10/site-packages/numpy (version 2.2.6)
scipy:  /home/mikei/.pyenv/versions/cemea-env/lib/python3.10/site-packages/scipy (version 1.15.3)
libxc:  2.x.y
units:  Angstrom and eV
cores: 1
OpenMP: False
OMP_NUM_THREADS: 1

Input parameters:
  basis: dzp
  convergence: {density: 0.0001,
                eigenstates: 1e-05,
                energy: 1e-05}
  kpts: [4 4 1]
  mode: lcao

System changes: positions, numbers, cell, pbc, initial_charges, initial_magmoms 

Initialize ...

species:
  Mo:
    name: Molybdenum
    id: ac24daaf086600a00ce6d19a74574df1
    Z: 42.0
    valence: 14
    core: 28
    charge: 0.0
    file: /home/mikei/.pyenv/versions/cemea-env/lib/python3.10/site-packages/gpaw_data/setups/Mo.LDA.gz
    compensation charges: {type: gauss,
                           rc: 0.38,
                           lmax: 2}
    cutoffs: {filter: 2.16,
              core: 1.42}
    projectors:
      #              energy  rcut
      - 4s(2.00)   -64.384   1.238
      - 5s(1.00)    -4.319   1.238
      - 4p(6.00)   -38.595   1.296
      - 5p(0.00)    -1.161   1.296
      - 4d(5.00)    -3.933   1.296
      -  d          23.278   1.296
  
    # LCAO basis set for Mo:
    #   Name: dzp
    #   File: /home/mikei/.pyenv/versions/cemea-env/lib/python3.10/site-packages/gpaw_data/setups/Mo.dzp.basis.gz
    #   Number of radial functions: 11
    #   Number of spherical harmonics: 29
    #     l=0, rc=3.5469 Bohr: 4s-sz confined orbital
    #     l=0, rc=10.0469 Bohr: 5s-sz confined orbital
    #     l=1, rc=4.0781 Bohr: 4p-sz confined orbital
    #     l=1, rc=14.0938 Bohr: 5p-sz confined orbital
    #     l=2, rc=7.2031 Bohr: 4d-sz confined orbital
    #     l=0, rc=2.1250 Bohr: 4s-dz split-valence wave
    #     l=0, rc=6.1250 Bohr: 5s-dz split-valence wave
    #     l=1, rc=2.5469 Bohr: 4p-dz split-valence wave
    #     l=1, rc=8.7656 Bohr: 5p-dz split-valence wave
    #     l=2, rc=4.2344 Bohr: 4d-dz split-valence wave
    #     l=1, rc=10.0469 Bohr: p-type Gaussian polarization
    #   Number of RI-basis functions 0

  Ni:
    name: Nickel
    id: 1802175e8de9ea26d9f4394ec1a7d564
    Z: 28.0
    valence: 16
    core: 12
    charge: 0.0
    file: /home/mikei/.pyenv/versions/cemea-env/lib/python3.10/site-packages/gpaw_data/setups/Ni.LDA.gz
    compensation charges: {type: gauss,
                           rc: 0.36,
                           lmax: 2}
    cutoffs: {filter: 2.14,
              core: 1.98}
    projectors:
      #              energy  rcut
      - 4s(2.00)    -5.858   1.164
      - 3p(6.00)   -71.266   1.207
      - 4p(0.00)    -1.338   1.207
      - 3d(8.00)    -9.141   1.138
      -  s          21.353   1.164
      -  d          18.071   1.138
  
    # LCAO basis set for Ni:
    #   Name: dzp
    #   File: /home/mikei/.pyenv/versions/cemea-env/lib/python3.10/site-packages/gpaw_data/setups/Ni.dzp.basis.gz
    #   Number of radial functions: 9
    #   Number of spherical harmonics: 27
    #     l=0, rc=8.5156 Bohr: 4s-sz confined orbital
    #     l=1, rc=2.9375 Bohr: 3p-sz confined orbital
    #     l=1, rc=12.4062 Bohr: 4p-sz confined orbital
    #     l=2, rc=4.6875 Bohr: 3d-sz confined orbital
    #     l=0, rc=4.9688 Bohr: 4s-dz split-valence wave
    #     l=1, rc=2.0781 Bohr: 3p-dz split-valence wave
    #     l=1, rc=7.5469 Bohr: 4p-dz split-valence wave
    #     l=2, rc=2.9375 Bohr: 3d-dz split-valence wave
    #     l=1, rc=8.5156 Bohr: p-type Gaussian polarization
    #   Number of RI-basis functions 0

  C:
    name: Carbon
    id: d60576a1f549371a163e72552ca58787
    Z: 6.0
    valence: 4
    core: 2
    charge: 0.0
    file: /home/mikei/.pyenv/versions/cemea-env/lib/python3.10/site-packages/gpaw_data/setups/C.LDA.gz
    compensation charges: {type: gauss,
                           rc: 0.20,
                           lmax: 2}
    cutoffs: {filter: 1.14,
              core: 1.14}
    projectors:
      #              energy  rcut
      - 2s(2.00)   -13.639   0.635
      - 2p(2.00)    -5.414   0.635
      -  s          13.573   0.635
      -  p          21.797   0.635
      -  d           0.000   0.635
  
    # LCAO basis set for C:
    #   Name: dzp
    #   File: /home/mikei/.pyenv/versions/cemea-env/lib/python3.10/site-packages/gpaw_data/setups/C.dzp.basis.gz
    #   Number of radial functions: 5
    #   Number of spherical harmonics: 13
    #     l=0, rc=5.5469 Bohr: 2s-sz confined orbital
    #     l=1, rc=6.6719 Bohr: 2p-sz confined orbital
    #     l=0, rc=3.0312 Bohr: 2s-dz split-valence wave
    #     l=1, rc=3.7500 Bohr: 2p-dz split-valence wave
    #     l=2, rc=6.6719 Bohr: d-type Gaussian polarization
    #   Number of RI-basis functions 0

Reference energy: -815514.497284  # eV

Spin-paired calculation

Convergence criteria:
 Maximum [total energy] change in last 3 cyles: 1e-05 eV / valence electron
 Maximum integral of absolute [dens]ity change: 0.0001 electrons / valence electron
 Maximum integral of absolute [eigenst]ate change: 1e-05 eV^2 / valence electron
 Maximum number of scf [iter]ations: 333
 (Square brackets indicate name in SCF output, whereas a 'c' in
 the SCF output indicates the quantity has converged.)

Symmetries present (total): 2

  ( 1  0  0)  ( 0  1  0)
  ( 0  1  0)  ( 1  0  0)
  ( 0  0  1)  ( 0  0  1)

16 k-points: 4 x 4 x 1 Monkhorst-Pack grid
6 k-points in the irreducible part of the Brillouin zone
       k-points in crystal coordinates                weights
   0:     0.12500000   -0.12500000    0.00000000          2/16
   1:     0.12500000    0.12500000    0.00000000          2/16
   2:     0.37500000   -0.37500000    0.00000000          2/16
   3:     0.37500000   -0.12500000    0.00000000          4/16
   4:     0.37500000    0.12500000    0.00000000          4/16
   5:     0.37500000    0.37500000    0.00000000          2/16

Wave functions: LCAO
  Diagonalizer: Serial LAPACK
  Atomic Correction: dense with blas
  Data-type: complex
 

Occupation numbers: Fermi-Dirac:
  width: 0.1000  # eV
 

Eigensolver
   LCAO using direct dense diagonalizer 

Densities:
  Coarse grid: 40*40*92 grid
  Fine grid: 80*80*184 grid
  Total Charge: 0.000000 

Density mixing:
  Method: separate
  Backend: pulay
  Linear mixing parameter: 0.05
  old densities: 5
  Damping of long wavelength oscillations: 50 

Hamiltonian:
  XC and Coulomb potentials evaluated on a 80*80*184 grid
  Using the LDA Exchange-Correlation functional
  Interpolation: tri-quintic (5. degree polynomial)
  Poisson solver: FastPoissonSolver using
    Stencil: 6*3+1=19 point O(h^6) finite-difference Laplacian
    FFT axes: [np.int64(0), np.int64(1), np.int64(2)]
    FST axes: []
 

Memory estimate:
  Process memory now: 1262.19 MiB
  Calculator: 199.93 MiB
    Density: 80.41 MiB
      Arrays: 29.20 MiB
      Localized functions: 39.98 MiB
      Mixer: 11.23 MiB
    Hamiltonian: 21.73 MiB
      Arrays: 19.09 MiB
      XC: 0.00 MiB
      Poisson: 0.00 MiB
      vbar: 2.64 MiB
    Wavefunctions: 97.78 MiB
      C [qnM]: 2.12 MiB
      S, T [2 x qmm]: 14.56 MiB
      P [aqMi]: 0.32 MiB
      BasisFunctions: 80.79 MiB
      Eigensolver: 0.00 MiB

Total number of cores used: 1

Number of atoms: 12
Number of atomic orbitals: 282
Number of bands in calculation: 82
Number of valence electrons: 130
Bands to converge: occupied

... initialized

Initializing position-dependent things.

Density initialized from atomic densities
      .-------------------.  
     /|                   |  
    / |                   |  
   /  |                   |  
  /   |                   |  
 *    |                   |  
 |    |                   |  
 |    |                   |  
 |    |                   |  
 |    |                   |  
 |    |                   |  
 |    |   Mo        Mo    |  
 |    |                   |  
 |    |Ni        Mo       |  
 |    |   C         C     |  
 |  Mo|       Mo          |  
 |    |C         C        |  
 Mo   |    Mo             |  
 |    |                   |  
 |    |                   |  
 |    |                   |  
 |    |                   |  
 |    .-------------------.  
 |   /                   /   
 |  /                   /    
 | /                   /     
 |/                   /      
 *-------------------*       

Atomic positions and initial magnetic moments

Positions:
   0 Mo     0.000000    0.000000    8.000000    ( 0.0000,  0.0000,  0.0000)
   1 Ni     2.060000    2.060000   10.060000    ( 0.0000,  0.0000,  0.0000)
   2 C      2.060000    2.060000    8.000000    ( 0.0000,  0.0000,  0.0000)
   3 Mo     0.000000    4.120000    8.000000    ( 0.0000,  0.0000,  0.0000)
   4 Mo     2.060000    6.180000   10.060000    ( 0.0000,  0.0000,  0.0000)
   5 C      2.060000    6.180000    8.000000    ( 0.0000,  0.0000,  0.0000)
   6 Mo     4.120000    0.000000    8.000000    ( 0.0000,  0.0000,  0.0000)
   7 Mo     6.180000    2.060000   10.060000    ( 0.0000,  0.0000,  0.0000)
   8 C      6.180000    2.060000    8.000000    ( 0.0000,  0.0000,  0.0000)
   9 Mo     4.120000    4.120000    8.000000    ( 0.0000,  0.0000,  0.0000)
  10 Mo     6.180000    6.180000   10.060000    ( 0.0000,  0.0000,  0.0000)
  11 C      6.180000    6.180000    8.000000    ( 0.0000,  0.0000,  0.0000)

Unit cell:
           periodic     x           y           z      points  spacing
  1. axis:    yes    8.240000    0.000000    0.000000    40     0.2060
  2. axis:    yes    0.000000    8.240000    0.000000    40     0.2060
  3. axis:    yes    0.000000    0.000000   18.060000    92     0.1963

  Lengths:   8.240000   8.240000  18.060000
  Angles:   90.000000  90.000000  90.000000

Effective grid spacing dv^(1/3) = 0.2027

     iter     time        total  log10-change:
                         energy   eigst   dens
iter:   1 09:14:25  -100.605293        c
iter:   2 09:14:35   -87.204158        c -0.85
iter:   3 09:14:43   -80.089150        c -0.99
iter:   4 09:14:53   -79.178303        c -1.10
iter:   5 09:15:00   -79.775635        c -1.17
iter:   6 09:15:08   -80.841238        c -1.20
iter:   7 09:15:18   -81.389940        c -1.28
iter:   8 09:15:26   -80.294403        c -1.39
iter:   9 09:15:35   -78.351081        c -1.70
iter:  10 09:15:44   -76.836947        c -1.69
iter:  11 09:15:52   -77.479339        c -1.73
iter:  12 09:16:00   -77.598092        c -1.42
iter:  13 09:16:09   -75.961687        c -1.77
iter:  14 09:16:23   -75.621365        c -1.87
iter:  15 09:16:32   -75.251412        c -1.94
iter:  16 09:16:40   -75.307308        c -2.09
iter:  17 09:16:47   -75.174078        c -2.10
iter:  18 09:16:54   -75.193315        c -2.28
iter:  19 09:17:00   -75.145926        c -2.35
iter:  20 09:17:10   -75.143838        c -2.51
iter:  21 09:17:17   -75.143919        c -2.72
iter:  22 09:17:28   -75.141586        c -2.78
iter:  23 09:17:36   -75.137044        c -2.91
iter:  24 09:17:49   -75.137422        c -3.22
iter:  25 09:18:02   -75.136965c       c -3.25
iter:  26 09:18:10   -75.138091c       c -3.30
iter:  27 09:18:18   -75.136618        c -3.40
iter:  28 09:18:27   -75.137455        c -3.33
iter:  29 09:18:35   -75.136829c       c -3.45
iter:  30 09:18:46   -75.137170c       c -3.40
iter:  31 09:18:55   -75.137425c       c -3.70
iter:  32 09:19:03   -75.137248c       c -3.75
iter:  33 09:19:13   -75.136905c       c -3.86
iter:  34 09:19:22   -75.137123c       c -4.08c

Converged after 34 iterations.

Dipole moment: (-5.291072, -5.291072, 0.549334) |e|*Ang

Energy contributions relative to reference atoms: (reference = -815514.497284)

Kinetic:       -181.179242
Potential:     +123.542166
External:        +0.000000
XC:             -17.903298
Entropy (-ST):   -1.112020
Local:           +0.959261
SIC:             +0.000000
--------------------------
Free energy:    -75.693133
Extrapolated:   -75.137123

Showing only first 2 kpts
 Kpt  Band  Eigenvalues  Occupancy
  0    63     -2.26427    1.20103
  0    64     -2.17019    0.73954
  0    65     -2.16523    0.71659
  0    66     -2.09249    0.42491

  1    63     -2.26427    1.20103
  1    64     -2.17019    0.73954
  1    65     -2.16523    0.71659
  1    66     -2.09249    0.42491


Fermi level: -2.22351

No gap
No difference between direct/indirect transitions
Timing:                              incl.     excl.
-----------------------------------------------------------
Basic WFS set positions:             0.000     0.000   0.0% |
Basis functions set positions:       0.063     0.063   0.0% |
LCAO WFS Initialize:                 0.220     0.030   0.0% |
 Hamiltonian:                        0.190     0.000   0.0% |
  Atomic:                            0.054     0.001   0.0% |
   XC Correction:                    0.053     0.053   0.0% |
  Calculate atomic Hamiltonians:     0.005     0.005   0.0% |
  Communicate:                       0.000     0.000   0.0% |
  Hartree integrate/restrict:        0.008     0.008   0.0% |
  Initialize Hamiltonian:            0.000     0.000   0.0% |
  Poisson:                           0.076     0.006   0.0% |
   Communicate from 1D:              0.008     0.008   0.0% |
   Communicate from 2D:              0.007     0.007   0.0% |
   Communicate to 1D:                0.010     0.010   0.0% |
   Communicate to 2D:                0.011     0.011   0.0% |
   FFT 1D:                           0.012     0.012   0.0% |
   FFT 2D:                           0.022     0.022   0.0% |
  XC 3D grid:                        0.041     0.041   0.0% |
  vbar:                              0.006     0.006   0.0% |
P tci:                               0.185     0.185   0.1% |
SCF-cycle:                         301.458     0.032   0.0% |
 Density:                          148.651     0.000   0.0% |
  Atomic density matrices:           0.037     0.037   0.0% |
  Mix:                               3.129     3.129   1.0% |
  Multipole moments:                 0.003     0.003   0.0% |
  Normalize:                         0.002     0.002   0.0% |
  Pseudo density:                  145.479     0.010   0.0% |
   Calculate density matrix:         0.687     0.687   0.2% |
   Construct density:              144.669   144.669  47.8% |------------------|
   Symmetrize density:               0.113     0.113   0.0% |
 Hamiltonian:                        7.401     0.002   0.0% |
  Atomic:                            1.921     0.025   0.0% |
   XC Correction:                    1.896     1.896   0.6% |
  Calculate atomic Hamiltonians:     0.173     0.173   0.1% |
  Communicate:                       0.000     0.000   0.0% |
  Hartree integrate/restrict:        0.190     0.190   0.1% |
  Poisson:                           2.311     0.184   0.1% |
   Communicate from 1D:              0.260     0.260   0.1% |
   Communicate from 2D:              0.227     0.227   0.1% |
   Communicate to 1D:                0.185     0.185   0.1% |
   Communicate to 2D:                0.325     0.325   0.1% |
   FFT 1D:                           0.383     0.383   0.1% |
   FFT 2D:                           0.747     0.747   0.2% |
  XC 3D grid:                        2.466     2.466   0.8% |
  vbar:                              0.338     0.338   0.1% |
 LCAO eigensolver:                 145.374     0.035   0.0% |
  Calculate projections:            10.685    10.685   3.5% ||
  DenseAtomicCorrection:            10.431    10.431   3.4% ||
  Distribute overlap matrix:         0.029     0.029   0.0% |
  Orbital Layouts:                  97.631    97.631  32.2% |------------|
  Potential matrix:                 24.787    24.787   8.2% |--|
  Sum over cells:                    1.776     1.776   0.6% |
ST tci:                              0.123     0.123   0.0% |
Set symmetry:                        0.000     0.000   0.0% |
TCI: Evaluate splines:               0.322     0.322   0.1% |
mktci:                               0.004     0.004   0.0% |
Other:                               0.543     0.543   0.2% |
-----------------------------------------------------------
Total:                                       302.918 100.0%

Memory usage: 1.23 GiB
Date: Fri Feb 20 09:19:22 2026
