
  ___ ___ ___ _ _ _  
 |   |   |_  | | | | 
 | | | | | . | | | | 
 |__ |  _|___|_____|  25.7.0
 |___|_|             

User:   ubuntu@third-test
Date:   Thu Feb 19 00:01:31 2026
Arch:   x86_64
Pid:    2718679
CWD:    /mnt/vdd1/work/cemea/fairchem/src/fairchem/applications/ocx/mo_h_adsorption_workflow
Python: 3.10.16
gpaw:   /home/ubuntu/.pyenv/versions/cemea-env/lib/python3.10/site-packages/gpaw
_gpaw:  /home/ubuntu/.pyenv/versions/cemea-env/lib/python3.10/site-packages/
        _gpaw.cpython-310-x86_64-linux-gnu.so
ase:    /home/ubuntu/.pyenv/versions/cemea-env/lib/python3.10/site-packages/ase (version 3.27.0)
numpy:  /home/ubuntu/.pyenv/versions/cemea-env/lib/python3.10/site-packages/numpy (version 2.2.6)
scipy:  /home/ubuntu/.pyenv/versions/cemea-env/lib/python3.10/site-packages/scipy (version 1.15.3)
libxc:  2.x.y
units:  Angstrom and eV
cores: 1
OpenMP: False
OMP_NUM_THREADS: 1

Input parameters:
  basis: dzp
  convergence: {density: 0.0001,
                eigenstates: 1e-05,
                energy: 1e-05}
  kpts: [4 4 1]
  mode: lcao

System changes: positions, numbers, cell, pbc, initial_charges, initial_magmoms 

Initialize ...

species:
  Mo:
    name: Molybdenum
    id: ac24daaf086600a00ce6d19a74574df1
    Z: 42.0
    valence: 14
    core: 28
    charge: 0.0
    file: /home/ubuntu/.pyenv/versions/cemea-env/lib/python3.10/site-packages/gpaw_data/setups/Mo.LDA.gz
    compensation charges: {type: gauss,
                           rc: 0.38,
                           lmax: 2}
    cutoffs: {filter: 2.16,
              core: 1.42}
    projectors:
      #              energy  rcut
      - 4s(2.00)   -64.384   1.238
      - 5s(1.00)    -4.319   1.238
      - 4p(6.00)   -38.595   1.296
      - 5p(0.00)    -1.161   1.296
      - 4d(5.00)    -3.933   1.296
      -  d          23.278   1.296
  
    # LCAO basis set for Mo:
    #   Name: dzp
    #   File: /home/ubuntu/.pyenv/versions/cemea-env/lib/python3.10/site-packages/gpaw_data/setups/Mo.dzp.basis.gz
    #   Number of radial functions: 11
    #   Number of spherical harmonics: 29
    #     l=0, rc=3.5469 Bohr: 4s-sz confined orbital
    #     l=0, rc=10.0469 Bohr: 5s-sz confined orbital
    #     l=1, rc=4.0781 Bohr: 4p-sz confined orbital
    #     l=1, rc=14.0938 Bohr: 5p-sz confined orbital
    #     l=2, rc=7.2031 Bohr: 4d-sz confined orbital
    #     l=0, rc=2.1250 Bohr: 4s-dz split-valence wave
    #     l=0, rc=6.1250 Bohr: 5s-dz split-valence wave
    #     l=1, rc=2.5469 Bohr: 4p-dz split-valence wave
    #     l=1, rc=8.7656 Bohr: 5p-dz split-valence wave
    #     l=2, rc=4.2344 Bohr: 4d-dz split-valence wave
    #     l=1, rc=10.0469 Bohr: p-type Gaussian polarization
    #   Number of RI-basis functions 0

  S:
    name: Sulfur
    id: a5eb49d7597a2879c13719b04c71318f
    Z: 16.0
    valence: 6
    core: 10
    charge: 0.0
    file: /home/ubuntu/.pyenv/versions/cemea-env/lib/python3.10/site-packages/gpaw_data/setups/S.LDA.gz
    compensation charges: {type: gauss,
                           rc: 0.24,
                           lmax: 2}
    cutoffs: {filter: 1.77,
              core: 1.66}
    projectors:
      #              energy  rcut
      - 3s(2.00)   -17.278   0.974
      - 3p(4.00)    -7.106   0.979
      -  s           9.933   0.974
      -  p          20.105   0.979
      -  d           0.000   0.900
  
    # LCAO basis set for S:
    #   Name: dzp
    #   File: /home/ubuntu/.pyenv/versions/cemea-env/lib/python3.10/site-packages/gpaw_data/setups/S.dzp.basis.gz
    #   Number of radial functions: 5
    #   Number of spherical harmonics: 13
    #     l=0, rc=5.5156 Bohr: 3s-sz confined orbital
    #     l=1, rc=6.9375 Bohr: 3p-sz confined orbital
    #     l=0, rc=3.0469 Bohr: 3s-dz split-valence wave
    #     l=1, rc=3.9375 Bohr: 3p-dz split-valence wave
    #     l=2, rc=6.9375 Bohr: d-type Gaussian polarization
    #   Number of RI-basis functions 0

  H:
    name: Hydrogen
    id: 4766778ce56282eaa64abeb28b7c1de3
    Z: 1.0
    valence: 1
    core: 0
    charge: 0.0
    file: /home/ubuntu/.pyenv/versions/cemea-env/lib/python3.10/site-packages/gpaw_data/setups/H.LDA.gz
    compensation charges: {type: gauss,
                           rc: 0.15,
                           lmax: 2}
    cutoffs: {filter: 0.85,
              core: 0.53}
    projectors:
      #              energy  rcut
      - 1s(1.00)    -6.353   0.476
      -  s          20.858   0.476
      -  p           0.000   0.476
  
    # LCAO basis set for H:
    #   Name: dzp
    #   File: /home/ubuntu/.pyenv/versions/cemea-env/lib/python3.10/site-packages/gpaw_data/setups/H.dzp.basis.gz
    #   Number of radial functions: 3
    #   Number of spherical harmonics: 5
    #     l=0, rc=6.4219 Bohr: 1s-sz confined orbital
    #     l=0, rc=3.6094 Bohr: 1s-dz split-valence wave
    #     l=1, rc=6.4219 Bohr: p-type Gaussian polarization
    #   Number of RI-basis functions 0

Reference energy: -505038.884769  # eV

Spin-paired calculation

Convergence criteria:
 Maximum [total energy] change in last 3 cyles: 1e-05 eV / valence electron
 Maximum integral of absolute [dens]ity change: 0.0001 electrons / valence electron
 Maximum integral of absolute [eigenst]ate change: 1e-05 eV^2 / valence electron
 Maximum number of scf [iter]ations: 333
 (Square brackets indicate name in SCF output, whereas a 'c' in
 the SCF output indicates the quantity has converged.)

Symmetries present (total): 1

  ( 1  0  0)
  ( 0  1  0)
  ( 0  0  1)

16 k-points: 4 x 4 x 1 Monkhorst-Pack grid
8 k-points in the irreducible part of the Brillouin zone
       k-points in crystal coordinates                weights
   0:     0.12500000   -0.37500000    0.00000000          2/16
   1:     0.12500000   -0.12500000    0.00000000          2/16
   2:     0.12500000    0.12500000    0.00000000          2/16
   3:     0.12500000    0.37500000    0.00000000          2/16
   4:     0.37500000   -0.37500000    0.00000000          2/16
   5:     0.37500000   -0.12500000    0.00000000          2/16
   6:     0.37500000    0.12500000    0.00000000          2/16
   7:     0.37500000    0.37500000    0.00000000          2/16

Wave functions: LCAO
  Diagonalizer: Serial LAPACK
  Atomic Correction: dense with blas
  Data-type: complex
 

Occupation numbers: Fermi-Dirac:
  width: 0.1000  # eV
 

Eigensolver
   LCAO using direct dense diagonalizer 

Densities:
  Coarse grid: 28*28*96 grid
  Fine grid: 56*56*192 grid
  Total Charge: 0.000000 

Density mixing:
  Method: separate
  Backend: pulay
  Linear mixing parameter: 0.05
  old densities: 5
  Damping of long wavelength oscillations: 50 

Hamiltonian:
  XC and Coulomb potentials evaluated on a 56*56*192 grid
  Using the LDA Exchange-Correlation functional
  Interpolation: tri-quintic (5. degree polynomial)
  Poisson solver: FastPoissonSolver using
    Stencil: 8*3+1=25 point O(h^6) finite-difference Laplacian
    FFT axes: [np.int64(0), np.int64(1), np.int64(2)]
    FST axes: []
 

Memory estimate:
  Process memory now: 1685.06 MiB
  Calculator: 122.76 MiB
    Density: 51.36 MiB
      Arrays: 14.93 MiB
      Localized functions: 30.69 MiB
      Mixer: 5.74 MiB
    Hamiltonian: 11.94 MiB
      Arrays: 9.76 MiB
      XC: 0.00 MiB
      Poisson: 0.00 MiB
      vbar: 2.18 MiB
    Wavefunctions: 59.45 MiB
      C [qnM]: 1.46 MiB
      S, T [2 x qmm]: 9.67 MiB
      P [aqMi]: 0.24 MiB
      BasisFunctions: 48.09 MiB
      Eigensolver: 0.00 MiB

Total number of cores used: 1

Number of atoms: 11
Number of atomic orbitals: 199
Number of bands in calculation: 60
Number of valence electrons: 93
Bands to converge: occupied

... initialized

Initializing position-dependent things.

Density initialized from atomic densities
                                  
                                  
                                  
                                  
                                  
          S    H S                
                                  
                                  
         Mo     Mo                
             S       S            
           Mo     Mo              
               S       S          
                                  
                                  
                                  
                                  

Atomic positions and initial magnetic moments

Positions:
   0 Mo     0.000000    0.000000    9.475400    ( 0.0000,  0.0000,  0.0000)
   1 S      1.580000    0.912213    8.000000    ( 0.0000,  0.0000,  0.0000)
   2 Mo    -1.580000    2.736640    9.475400    ( 0.0000,  0.0000,  0.0000)
   3 S     -1.580000    4.561067   10.950800    ( 0.0000,  0.0000,  0.0000)
   4 S     -0.000000    3.648854    8.000000    ( 0.0000,  0.0000,  0.0000)
   5 Mo     3.160000    0.000000    9.475400    ( 0.0000,  0.0000,  0.0000)
   6 S      4.740000    0.912213    8.000000    ( 0.0000,  0.0000,  0.0000)
   7 Mo     1.580000    2.736640    9.475400    ( 0.0000,  0.0000,  0.0000)
   8 S      1.580000    4.561067   10.950800    ( 0.0000,  0.0000,  0.0000)
   9 S      3.160000    3.648854    8.000000    ( 0.0000,  0.0000,  0.0000)
  10 H      1.264000    2.371755   12.450800    ( 0.0000,  0.0000,  0.0000)

Unit cell:
           periodic     x           y           z      points  spacing
  1. axis:    yes    6.320000    0.000000    0.000000    28     0.1955
  2. axis:    yes   -3.160000    5.473281    0.000000    28     0.1955
  3. axis:    yes    0.000000    0.000000   18.950800    96     0.1974

  Lengths:   6.320000   6.320000  18.950800
  Angles:   90.000000  90.000000 120.000000

Effective grid spacing dv^(1/3) = 0.2057

     iter     time        total  log10-change:
                         energy   eigst   dens
iter:   1 00:02:20   -82.319470        c
iter:   2 00:03:23   -80.606333        c -1.14
iter:   3 00:04:21   -79.030668        c -1.20
iter:   4 00:05:20   -78.925056        c -1.28
iter:   5 00:06:20   -78.508625        c -1.30
iter:   6 00:07:19   -78.334412        c -1.49
iter:   7 00:08:21   -77.753262        c -1.55
iter:   8 00:09:19   -77.749655        c -1.89
iter:   9 00:10:21   -77.685761        c -1.89
iter:  10 00:11:19   -77.674735        c -2.14
iter:  11 00:12:19   -77.666906        c -2.27
iter:  12 00:13:17   -77.663928        c -2.53
iter:  13 00:14:16   -77.662382        c -2.61
iter:  14 00:15:14   -77.659878        c -2.65
iter:  15 00:16:16   -77.658841        c -2.74
iter:  16 00:17:15   -77.658311        c -2.83
iter:  17 00:18:13   -77.657805        c -2.95
iter:  18 00:19:17   -77.657838c       c -3.29
iter:  19 00:20:15   -77.657890c       c -3.72
iter:  20 00:21:17   -77.657898c       c -3.84
iter:  21 00:22:20   -77.657919c       c -3.89
iter:  22 00:23:18   -77.657922c       c -4.08c

Converged after 22 iterations.

Dipole moment: (0.589454, -1.941615, -0.001975) |e|*Ang

Energy contributions relative to reference atoms: (reference = -505038.884769)

Kinetic:        +40.787674
Potential:      -56.564174
External:        +0.000000
XC:             -61.993164
Entropy (-ST):   -0.273557
Local:           +0.248521
SIC:             +0.000000
--------------------------
Free energy:    -77.794701
Extrapolated:   -77.657922

Showing only first 2 kpts
 Kpt  Band  Eigenvalues  Occupancy
  0    44     -2.29180    1.97915
  0    45     -2.16879    1.93041
  0    46     -1.96115    1.55335
  0    47     -1.59967    0.17123

  1    44     -2.17222    1.93267
  1    45     -2.11390    1.88250
  1    46     -1.83732    1.00405
  1    47     -1.68755    0.36797


Fermi level: -1.83651

No gap
No difference between direct/indirect transitions
Timing:                              incl.     excl.
-----------------------------------------------------------
Basic WFS set positions:             0.000     0.000   0.0% |
Basis functions set positions:       0.062     0.062   0.0% |
LCAO WFS Initialize:                 0.290     0.045   0.0% |
 Hamiltonian:                        0.245     0.000   0.0% |
  Atomic:                            0.062     0.001   0.0% |
   XC Correction:                    0.061     0.061   0.0% |
  Calculate atomic Hamiltonians:     0.012     0.012   0.0% |
  Communicate:                       0.000     0.000   0.0% |
  Hartree integrate/restrict:        0.030     0.030   0.0% |
  Initialize Hamiltonian:            0.000     0.000   0.0% |
  Poisson:                           0.074     0.004   0.0% |
   Communicate from 1D:              0.012     0.012   0.0% |
   Communicate from 2D:              0.010     0.010   0.0% |
   Communicate to 1D:                0.011     0.011   0.0% |
   Communicate to 2D:                0.013     0.013   0.0% |
   FFT 1D:                           0.006     0.006   0.0% |
   FFT 2D:                           0.017     0.017   0.0% |
  XC 3D grid:                        0.044     0.044   0.0% |
  vbar:                              0.022     0.022   0.0% |
P tci:                               0.565     0.565   0.0% |
SCF-cycle:                        1304.782     0.048   0.0% |
 Density:                          196.215     0.001   0.0% |
  Atomic density matrices:           0.055     0.055   0.0% |
  Mix:                               6.718     6.718   0.5% |
  Multipole moments:                 0.005     0.005   0.0% |
  Normalize:                         0.002     0.002   0.0% |
  Pseudo density:                  189.434     0.012   0.0% |
   Calculate density matrix:         4.890     4.890   0.4% |
   Construct density:              184.531   184.531  14.1% |-----|
   Symmetrize density:               0.001     0.001   0.0% |
 Hamiltonian:                        5.173     0.002   0.0% |
  Atomic:                            1.385     0.021   0.0% |
   XC Correction:                    1.364     1.364   0.1% |
  Calculate atomic Hamiltonians:     0.154     0.154   0.0% |
  Communicate:                       0.000     0.000   0.0% |
  Hartree integrate/restrict:        0.804     0.804   0.1% |
  Poisson:                           1.341     0.043   0.0% |
   Communicate from 1D:              0.189     0.189   0.0% |
   Communicate from 2D:              0.195     0.195   0.0% |
   Communicate to 1D:                0.241     0.241   0.0% |
   Communicate to 2D:                0.203     0.203   0.0% |
   FFT 1D:                           0.114     0.114   0.0% |
   FFT 2D:                           0.355     0.355   0.0% |
  XC 3D grid:                        1.021     1.021   0.1% |
  vbar:                              0.466     0.466   0.0% |
 LCAO eigensolver:                1103.347     0.027   0.0% |
  Calculate projections:             2.419     2.419   0.2% |
  DenseAtomicCorrection:            12.892    12.892   1.0% |
  Distribute overlap matrix:         0.020     0.020   0.0% |
  Orbital Layouts:                1047.409  1047.409  80.1% |-------------------------------|
  Potential matrix:                 35.117    35.117   2.7% ||
  Sum over cells:                    5.461     5.461   0.4% |
ST tci:                              0.289     0.289   0.0% |
Set symmetry:                        0.001     0.001   0.0% |
TCI: Evaluate splines:               0.357     0.357   0.0% |
mktci:                               0.009     0.009   0.0% |
Other:                               0.651     0.651   0.0% |
-----------------------------------------------------------
Total:                                      1307.005 100.0%

Memory usage: 1.65 GiB
Date: Thu Feb 19 00:23:18 2026
